 Gaussian 16, Revision B.01,
 Gaussian 16:  ES64L-G16RevB.01 20-Dec-2017

 ----------------------------------------------------------
 # wb97xd/6-31+g iop(6/33=2) iop(6/42=6) pop=mk iop(6/50=1)
 ----------------------------------------------------------

 -----
 DBP11
 -----
 Symbolic Z-matrix:
 Charge =  0 Multiplicity = 1

                         Standard orientation:
 ---------------------------------------------------------------------
 Center     Atomic      Atomic             Coordinates (Angstroms)
 Number     Number       Type             X           Y           Z
 ---------------------------------------------------------------------
      1          6           0        5.421044    5.437406   -0.388833
      2          6           0        4.914461    4.773275    0.658057
      3          6           0        5.325267    3.469967    0.878681
      4          6           0        6.094535    2.796075   -0.062228
      5          6           0        6.090088    1.384505   -0.060046
      6          6           0        7.284579    0.683493   -0.218295
      7          6           0        8.526221    1.375740   -0.350126
      8          6           0        9.712806    0.706945   -0.468079
      9          6           0        9.715768   -0.655789   -0.461262
     10          6           0        8.515046   -1.348245   -0.306233
     11          6           0        7.266614   -0.741218   -0.168640
     12          6           0        6.041136   -1.448837   -0.026960
     13          6           0        6.022636   -2.831993    0.342495
     14          6           0        6.602634   -3.813759   -0.425713
     15          6           0        6.418712   -5.149834    0.003692
     16          6           0        5.847845   -5.380915    1.260393
     17          6           0        5.430174   -4.405464    2.033945
     18          6           0        5.427821   -3.096758    1.550123
     19          6           0        4.856311   -0.719500    0.027398
     20          6           0        3.537388   -1.138588   -0.011178
     21          6           0        2.843058   -2.403863   -0.040740
     22          6           0        1.479965   -2.439889   -0.059740
     23          6           0        0.662189   -1.279488    0.016856
     24          6           0       -0.721300   -1.236673   -0.040079
     25          6           0       -1.460261   -2.427483   -0.059650
     26          6           0       -2.895877   -2.403297   -0.067044
     27          6           0       -3.591778   -1.161257   -0.155951
     28          6           0       -4.882340   -0.694563   -0.170612
     29          6           0       -6.130731   -1.416288   -0.284526
     30          6           0       -6.131351   -2.773014   -0.488853
     31          6           0       -6.748956   -3.624074    0.516795
     32          6           0       -6.575653   -5.012887    0.504442
     33          6           0       -5.838606   -5.558331   -0.553886
     34          6           0       -5.279185   -4.730857   -1.531640
     35          6           0       -5.437800   -3.403688   -1.537048
     36          6           0       -7.339727   -0.688501   -0.167316
     37          6           0       -8.572607   -1.321969   -0.385039
     38          6           0       -9.726263   -0.558672   -0.334495
     39          6           0       -9.678706    0.776446    0.009841
     40          6           0       -8.508100    1.431703    0.208541
     41          6           0       -7.298874    0.717125    0.125151
     42          6           0       -6.050061    1.405204    0.117834
     43          6           0       -5.962256    2.835603    0.284087
     44          6           0       -6.092687    3.517726    1.534803
     45          6           0       -5.621110    4.847980    1.714703
     46          6           0       -5.322123    5.566414    0.564875
     47          6           0       -5.331945    4.936342   -0.692934
     48          6           0       -5.582008    3.545101   -0.830620
     49          6           0       -4.836727    0.698150   -0.055804
     50          6           0       -3.554357    1.101360    0.056889
     51          6           0       -2.894650    2.326659    0.334054
     52          6           0       -1.474180    2.377903    0.327063
     53          6           0       -0.735918    1.222045    0.147337
     54          6           0        0.669030    1.188108    0.025285
     55          6           0        1.397411    2.387929   -0.065605
     56          6           0        2.828306    2.309226   -0.207033
     57          6           0        3.510335    1.062146   -0.055133
     58          6           0        4.871870    0.658415    0.037242
     59          6           0        2.709459   -0.019504   -0.070221
     60          6           0        1.348400   -0.035626   -0.058402
     61          6           0       -1.379042   -0.023623    0.023236
     62          6           0       -2.813567   -0.055264   -0.023151
     63          6           0        6.567643    3.509035   -1.135474
     64          6           0        6.333284    4.897735   -1.317634
     65          1           0        5.163302    6.445211   -0.703698
     66          1           0        4.132142    5.294153    1.204690
     67          1           0        5.041384    3.010264    1.821799
     68          1           0        8.689287    2.430603   -0.557728
     69          1           0       10.632398    1.280021   -0.558756
     70          1           0       10.569155   -1.329467   -0.425967
     71          1           0        8.658037   -2.425592   -0.341486
     72          1           0        6.986920   -3.667296   -1.431733
     73          1           0        6.764350   -6.008787   -0.566058
     74          1           0        5.776908   -6.414413    1.589763
     75          1           0        5.040266   -4.570475    3.035592
     76          1           0        4.923815   -2.307727    2.101765
     77          1           0        3.380430   -3.347022   -0.094692
     78          1           0        1.077190   -3.448276   -0.102387
     79          1           0       -0.918919   -3.370149   -0.056203
     80          1           0       -3.393635   -3.358948    0.074206
     81          1           0       -7.291609   -3.197608    1.357086
     82          1           0       -6.885705   -5.542917    1.401074
     83          1           0       -5.591430   -6.615734   -0.496891
     84          1           0       -4.718638   -5.152042   -2.362672
     85          1           0       -4.992293   -2.773991   -2.302645
     86          1           0       -8.596652   -2.355859   -0.717607
     87          1           0      -10.671456   -1.061819   -0.522746
     88          1           0      -10.615639    1.314442    0.128817
     89          1           0       -8.437376    2.515873    0.261738
     90          1           0       -6.274842    2.916044    2.422404
     91          1           0       -5.473376    5.331269    2.676832
     92          1           0       -4.927766    6.574485    0.662970
     93          1           0       -5.035064    5.515527   -1.563353
     94          1           0       -5.371996    3.113752   -1.805859
     95          1           0       -3.455442    3.255216    0.404996
     96          1           0       -1.018791    3.342873    0.538808
     97          1           0        0.912349    3.354982   -0.175237
     98          1           0        3.456394    3.121075   -0.564663
     99          1           0        7.069769    2.974229   -1.937038
    100          1           0        6.576788    5.481837   -2.200674
 ---------------------------------------------------------------------

 SCF Done:  E(RwB97XD) =  -2459.09959825     A.U. after   18 cycles

 The electronic state is 1-A.
 Alpha  occ. eigenvalues --  -10.31879 -10.31833 -10.31751 -10.31673 -10.31616
 Alpha  occ. eigenvalues --  -10.31578 -10.31577 -10.31529 -10.31516 -10.31493
 Alpha  occ. eigenvalues --  -10.31484 -10.31464 -10.31396 -10.31393 -10.31378
 Alpha  occ. eigenvalues --  -10.31324 -10.31235 -10.31208 -10.31199 -10.31153
 Alpha  occ. eigenvalues --  -10.31121 -10.31110 -10.31109 -10.31088 -10.31044
 Alpha  occ. eigenvalues --  -10.31035 -10.31034 -10.31032 -10.31027 -10.30986
 Alpha  occ. eigenvalues --  -10.30983 -10.30948 -10.30857 -10.30834 -10.30831
 Alpha  occ. eigenvalues --  -10.30789 -10.30765 -10.30760 -10.30659 -10.30577
 Alpha  occ. eigenvalues --  -10.30504 -10.30460 -10.30275 -10.30261 -10.30216
 Alpha  occ. eigenvalues --  -10.30185 -10.30144 -10.30133 -10.30129 -10.30124
 Alpha  occ. eigenvalues --  -10.30047 -10.30012 -10.30000 -10.29998 -10.29996
 Alpha  occ. eigenvalues --  -10.29943 -10.29929 -10.29911 -10.29845 -10.29818
 Alpha  occ. eigenvalues --  -10.29712 -10.29697 -10.28910 -10.28553  -1.04430
 Alpha  occ. eigenvalues --   -1.03949  -1.01005  -0.99573  -0.99040  -0.98552
 Alpha  occ. eigenvalues --   -0.98005  -0.97550  -0.96805  -0.95454  -0.94695
 Alpha  occ. eigenvalues --   -0.92935  -0.92379  -0.92057  -0.91415  -0.90911
 Alpha  occ. eigenvalues --   -0.87558  -0.87308  -0.86927  -0.86532  -0.86276
 Alpha  occ. eigenvalues --   -0.86032  -0.85833  -0.85356  -0.85224  -0.84888
 Alpha  occ. eigenvalues --   -0.84757  -0.84096  -0.82729  -0.82056  -0.81143
 Alpha  occ. eigenvalues --   -0.79356  -0.77961  -0.76951  -0.75480  -0.73897
 Alpha  occ. eigenvalues --   -0.73323  -0.72976  -0.72535  -0.72344  -0.71751
 Alpha  occ. eigenvalues --   -0.71623  -0.71041  -0.70490  -0.70166  -0.69825
 Alpha  occ. eigenvalues --   -0.69621  -0.69447  -0.69111  -0.67021  -0.66514
 Alpha  occ. eigenvalues --   -0.64895  -0.64192  -0.63732  -0.63382  -0.62962
 Alpha  occ. eigenvalues --   -0.62563  -0.61923  -0.61693  -0.61254  -0.60232
 Alpha  occ. eigenvalues --   -0.58777  -0.58528  -0.58370  -0.58106  -0.57764
 Alpha  occ. eigenvalues --   -0.56544  -0.56293  -0.55999  -0.55953  -0.55755
 Alpha  occ. eigenvalues --   -0.55411  -0.55270  -0.55135  -0.54602  -0.54326
 Alpha  occ. eigenvalues --   -0.54057  -0.53551  -0.53480  -0.53410  -0.53350
 Alpha  occ. eigenvalues --   -0.52872  -0.52461  -0.52323  -0.52156  -0.51669
 Alpha  occ. eigenvalues --   -0.51606  -0.51307  -0.51226  -0.51094  -0.51040
 Alpha  occ. eigenvalues --   -0.50802  -0.50514  -0.50114  -0.49683  -0.49433
 Alpha  occ. eigenvalues --   -0.49116  -0.48609  -0.48150  -0.47935  -0.47799
 Alpha  occ. eigenvalues --   -0.47284  -0.46563  -0.46429  -0.46001  -0.45820
 Alpha  occ. eigenvalues --   -0.45557  -0.45063  -0.44702  -0.44524  -0.44337
 Alpha  occ. eigenvalues --   -0.44073  -0.44023  -0.43894  -0.43793  -0.43416
 Alpha  occ. eigenvalues --   -0.43206  -0.42910  -0.42174  -0.41970  -0.41800
 Alpha  occ. eigenvalues --   -0.41321  -0.40854  -0.40718  -0.40105  -0.39457
 Alpha  occ. eigenvalues --   -0.38551  -0.38340  -0.37257  -0.36226  -0.35051
 Alpha  occ. eigenvalues --   -0.34255  -0.34105  -0.33728  -0.33476  -0.33245
 Alpha  occ. eigenvalues --   -0.33068  -0.32725  -0.32589  -0.32015  -0.31638
 Alpha  occ. eigenvalues --   -0.30702  -0.29649  -0.27653  -0.26416  -0.22637
 Alpha virt. eigenvalues --   -0.06061  -0.00870   0.00252   0.01566   0.03691
 Alpha virt. eigenvalues --    0.04088   0.04495   0.04709   0.04881   0.05300
 Alpha virt. eigenvalues --    0.05444   0.05664   0.05872   0.05946   0.06223

 Mulliken charges:
               1
     1  C   -0.202765
     2  C   -0.048180
     3  C   -0.391674
     4  C    0.461532
     5  C   -0.014361
     6  C    0.021608
     7  C   -0.223165
     8  C   -0.317246
     9  C   -0.645907
    10  C   -0.166724
    11  C    0.561796
    12  C    0.287858
    13  C    0.581332
    14  C   -0.481826
    15  C   -0.058459
    16  C   -0.192801
    17  C   -0.238049
    18  C   -0.802883
    19  C    0.067560
    20  C   -0.001477
    21  C   -0.167331
    22  C   -0.281806
    23  C    0.037792
    24  C    0.127977
    25  C   -0.474976
    26  C   -0.392794
    27  C    0.460040
    28  C    0.143485
    29  C    0.335645
    30  C    0.203413
    31  C   -0.600726
    32  C   -0.213837
    33  C   -0.186834
    34  C   -0.071113
    35  C   -0.490030
    36  C    0.437598
    37  C   -0.529702
    38  C   -0.103648
    39  C   -0.243975
    40  C   -0.486190
    41  C    0.407093
    42  C   -0.133605
    43  C   -0.024443
    44  C   -0.130736
    45  C   -0.220543
    46  C   -0.169086
    47  C   -0.273110
    48  C   -0.754988
    49  C    0.328737
    50  C   -0.032514
    51  C   -0.420731
    52  C   -0.044247
    53  C    0.336535
    54  C    0.023716
    55  C   -0.429766
    56  C   -0.394399
    57  C    0.081828
    58  C    0.217055
    59  C   -0.547157
    60  C    0.242397
    61  C    0.181411
    62  C   -0.648799
    63  C   -0.835702
    64  C   -0.213162
    65  H    0.195027
    66  H    0.215419
    67  H    0.227177
    68  H    0.218283
    69  H    0.210636
    70  H    0.205072
    71  H    0.211523
    72  H    0.224555
    73  H    0.203967
    74  H    0.204794
    75  H    0.212275
    76  H    0.236589
    77  H    0.242058
    78  H    0.200557
    79  H    0.200242
    80  H    0.240123
    81  H    0.220342
    82  H    0.211680
    83  H    0.198726
    84  H    0.202057
    85  H    0.235893
    86  H    0.238651
    87  H    0.203456
    88  H    0.204222
    89  H    0.235580
    90  H    0.201102
    91  H    0.215248
    92  H    0.199435
    93  H    0.196502
    94  H    0.230902
    95  H    0.234071
    96  H    0.210464
    97  H    0.209267
    98  H    0.228851
    99  H    0.217452
   100  H    0.212867
 Sum of Mulliken charges =  -0.00000

 Dipole moment (field-independent basis, Debye):
    X=              0.7706    Y=             -0.1949    Z=             -0.1290  Tot=              0.8052
 Quadrupole moment (field-independent basis, Debye-Ang):
   XX=           -360.8393   YY=           -317.8818   ZZ=           -364.1570
   XY=             -3.2821   XZ=            -13.4162   YZ=             -3.5515

 ESP charges:
               1
     1  C   -0.086095
     2  C   -0.216555
     3  C   -0.094665
     4  C    0.155844
     5  C   -0.299572
     6  C    0.298045
     7  C   -0.330373
     8  C   -0.035446
     9  C   -0.226081
    10  C   -0.188246
    11  C    0.109675
    12  C   -0.260747
    13  C    0.301568
    14  C   -0.185691
    15  C   -0.198654
    16  C   -0.106538
    17  C   -0.128566
    18  C   -0.218139
    19  C   -0.005015
    20  C    0.058050
    21  C   -0.198339
    22  C   -0.214498
    23  C    0.030584
    24  C    0.079220
    25  C   -0.246425
    26  C   -0.125605
    27  C   -0.093287
    28  C    0.190940
    29  C   -0.469229
    30  C    0.379899
    31  C   -0.178326
    32  C   -0.174707
    33  C   -0.165213
    34  C   -0.104258
    35  C   -0.259480
    36  C    0.300936
    37  C   -0.254387
    38  C   -0.161333
    39  C   -0.088329
    40  C   -0.262343
    41  C    0.125097
    42  C   -0.307464
    43  C    0.495065
    44  C   -0.286797
    45  C   -0.117454
    46  C   -0.185757
    47  C   -0.097952
    48  C   -0.342022
    49  C   -0.008716
    50  C   -0.012581
    51  C   -0.161757
    52  C   -0.230555
    53  C    0.079404
    54  C    0.036476
    55  C   -0.248921
    56  C   -0.143068
    57  C   -0.021518
    58  C    0.092456
    59  C    0.028683
    60  C    0.032471
    61  C   -0.033399
    62  C    0.102760
    63  C   -0.087843
    64  C   -0.240089
    65  H    0.114807
    66  H    0.151458
    67  H    0.123326
    68  H    0.161167
    69  H    0.116395
    70  H    0.151151
    71  H    0.139942
    72  H    0.141375
    73  H    0.150436
    74  H    0.116301
    75  H    0.129997
    76  H    0.154882
    77  H    0.156313
    78  H    0.160025
    79  H    0.151267
    80  H    0.157620
    81  H    0.130613
    82  H    0.156205
    83  H    0.135745
    84  H    0.124780
    85  H    0.161399
    86  H    0.148567
    87  H    0.137635
    88  H    0.119964
    89  H    0.145688
    90  H    0.142212
    91  H    0.150892
    92  H    0.140090
    93  H    0.129027
    94  H    0.182906
    95  H    0.148980
    96  H    0.162165
    97  H    0.164390
    98  H    0.164703
    99  H    0.114156
   100  H    0.168282
 Sum of ESP charges =  -0.00000

 Normal termination of Gaussian 16 at Mon May 27 21:21:44 2024.
