 Q-Chem 6.0, Q-Chem, Inc., Pleasanton, CA (2022)
 Q-Chem 6.0.2 for Intel X86 EM64T Linux

User input:
--------------------------------------------------------------
$molecule
read                  DBP-C70_conf11.txt
$end

$rem
JOBTYPE               sp        ! single point charge calculation
METHOD                wB97XD
BASIS                 SV
SYM_IGNORE            TRUE      !
ideriv                0         !
! OMEGA                 114514       ! geometric parameter tuned for geometry
MAX_SCF_CYCLES        5000      !
separate_jk           TRUE      !
derscreen             FALSE     !
purecart              2111      !
scf_convergence       8         ! for SP, default is 5 ; for opt/freq, default is 8
CIS_DYNAMIC_MEM       True      ! using dynamic memory for large TDDFT calculation
MEM_STATIC            160000     ! static memory for storing data.
MEM_TOTAL             180000    !
max_cis_cycles        500000    !
CIS_N_ROOTS           25        ! number of excited states
CIS_SINGLETS          true      ! compute singlet excited states, default is true
CIS_TRIPLETS          false     ! compute triplet excited states, default is true
MAX_CIS_SUBSPACE      15000
RPA                   false  ! false: TDA-DFT, true: TDA- and TDDFT , 2: TDDFT
sts_fcd               true      ! compute electronic couplings with FCD method
sts_donor             71-170    ! donor atom index
sts_acceptor          1-70      ! acceptor atom index
POP_MULLIKEN          -1        ! get Mulliken Charge for ground and excited states
$end

--------------------------------------------------------------

             Standard Nuclear Orientation (Angstroms)
    I     Atom           X                Y                Z
 ----------------------------------------------------------------
    1      C      42.9625210000    25.4041310000    38.9978070000
    2      C      43.5695110000    24.2315980000    38.6269380000
    3      C      42.5992850000    23.2669070000    38.7938000000
    4      C      41.4103660000    23.8587070000    39.2239110000
    5      C      41.6467090000    25.2262730000    39.3359150000
    6      C      44.5002250000    24.1326310000    37.6233600000
    7      C      44.4736370000    23.1163010000    36.6820980000
    8      C      43.4608310000    22.1764700000    36.8131260000
    9      C      42.5703620000    22.1945930000    37.8548970000
   10      C      41.3964540000    21.7360020000    37.3327140000
   11      C      40.1685100000    22.3271660000    37.7374880000
   12      C      40.1935080000    23.4061910000    38.6496240000
   13      C      39.2538570000    24.3697320000    38.3151400000
   14      C      39.5391540000    25.7126080000    38.4223290000
   15      C      40.7371600000    26.1200520000    38.8936120000
   16      C      41.0041080000    27.2988530000    38.3206670000
   17      C      42.4207730000    27.5157410000    37.9570580000
   18      C      43.3458790000    26.5710030000    38.3547740000
   19      C      44.2382010000    26.5351120000    37.3179780000
   20      C      44.8863980000    25.2985250000    36.9585040000
   21      C      42.6840710000    28.1195660000    36.7129140000
   22      C      43.8230060000    27.3919730000    36.2818070000
   23      C      44.7262610000    23.7254490000    35.4689670000
   24      C      44.9842450000    25.0260280000    35.5989000000
   25      C      39.9640050000    27.6092010000    37.4440650000
   26      C      38.9960020000    26.5715640000    37.5491520000
   27      C      38.5666960000    23.8992580000    37.2013210000
   28      C      39.1394580000    22.6770710000    36.8047490000
   29      C      41.5317920000    21.5190110000    35.9948080000
   30      C      42.8750570000    21.7288680000    35.6705820000
   31      C      43.2232700000    22.2234780000    34.4033620000
   32      C      44.2715840000    23.2162440000    34.2819210000
   33      C      44.6489640000    25.9520630000    34.5662570000
   34      C      44.0581090000    27.1885070000    34.9727250000
   35      C      41.6102410000    28.4239080000    35.8448220000
   36      C      40.2690730000    28.2213460000    36.2391970000
   37      C      38.0284500000    24.7910210000    36.2145540000
   38      C      38.2443080000    26.1589580000    36.4041980000
   39      C      40.5161630000    21.6665940000    35.0352670000
   40      C      39.2311060000    22.2129440000    35.4594080000
   41      C      42.2475810000    22.1360450000    33.4177090000
   42      C      40.9278910000    21.8245620000    33.6822550000
   43      C      44.3242230000    25.4512210000    33.3113520000
   44      C      44.1583940000    24.0538650000    33.1654050000
   45      C      43.1775210000    27.8287580000    34.1315650000
   46      C      41.9898570000    28.4892220000    34.5094150000
   47      C      38.4986230000    23.0197660000    34.5677680000
   48      C      37.9426380000    24.2886770000    34.9103700000
   49      C      38.3010220000    27.0239370000    35.2303050000
   50      C      39.3353880000    28.0331730000    35.1652220000
   51      C      39.7194750000    28.1003930000    33.8481830000
   52      C      41.0384290000    28.3432830000    33.5083730000
   53      C      42.9378090000    27.3279290000    32.8556290000
   54      C      43.4873890000    26.1312920000    32.5403290000
   55      C      43.2432900000    23.9602810000    32.1398930000
   56      C      42.2707480000    22.9797210000    32.2892070000
   57      C      40.1112710000    22.5040300000    32.7642820000
   58      C      38.9553340000    23.0895980000    33.2456400000
   59      C      38.1425670000    26.4506400000    33.9684910000
   60      C      37.9720310000    25.1144660000    33.7831990000
   61      C      40.9610180000    23.2167260000    31.8826140000
   62      C      38.5492250000    24.3791350000    32.7690890000
   63      C      38.9547920000    27.1482300000    33.0944330000
   64      C      41.6842770000    27.6675110000    32.4661290000
   65      C      42.8301810000    25.2486860000    31.7481920000
   66      C      40.9288790000    26.7531600000    31.7264940000
   67      C      41.5142670000    25.5089630000    31.3269650000
   68      C      40.5711170000    24.5192640000    31.4018020000
   69      C      39.5953290000    26.4506030000    32.0356830000
   70      C      39.3488620000    25.0796090000    31.8526610000
   71      C      43.1333010000    31.7722320000    42.1698610000
   72      C      43.1975020000    30.9837720000    41.0469780000
   73      C      42.2327230000    31.1402440000    40.0289990000
   74      C      41.3808170000    32.1911960000    40.1087040000
   75      C      40.4761240000    32.3208200000    39.0367090000
   76      C      40.6135410000    33.3655510000    38.0903850000
   77      C      41.7302210000    34.2358700000    38.1600650000
   78      C      41.9292560000    35.1719820000    37.1445080000
   79      C      41.0919190000    35.2953680000    36.0723920000
   80      C      40.0616460000    34.3781050000    35.9618420000
   81      C      39.7372440000    33.4084890000    36.9343030000
   82      C      38.6801070000    32.5188030000    36.6705890000
   83      C      37.8726430000    32.5419350000    35.5231700000
   84      C      37.1320040000    33.7265550000    35.0706710000
   85      C      36.3825990000    33.6442530000    33.9449840000
   86      C      36.1319050000    32.4707720000    33.3397330000
   87      C      36.7217250000    31.3297770000    33.7997400000
   88      C      37.6730920000    31.3674350000    34.7976840000
   89      C      38.5886760000    31.5347560000    37.7043610000
   90      C      37.6696240000    30.4247020000    37.7897340000
   91      C      36.5108300000    30.0968590000    37.1694150000
   92      C      35.8617900000    28.9226930000    37.5083010000
   93      C      36.2982640000    28.0731700000    38.5891040000
   94      C      35.8545270000    26.7536790000    38.8513340000
   95      C      34.8981170000    26.1030120000    38.0416760000
   96      C      34.6507300000    24.7207110000    38.1745150000
   97      C      35.3469470000    24.0213570000    39.1687200000
   98      C      35.4770660000    22.6561510000    39.4659350000
   99      C      34.7790340000    21.5661810000    38.9390180000
  100      C      33.7380640000    21.7598970000    38.0947800000
  101      C      33.6411290000    21.1949650000    36.8035770000
  102      C      32.4478150000    21.1899280000    36.1154100000
  103      C      31.2767410000    21.7663920000    36.6843220000
  104      C      31.4109570000    22.3731120000    37.9174840000
  105      C      32.6387440000    22.3981900000    38.5975720000
  106      C      35.3200040000    20.2947850000    39.2984390000
  107      C      34.8372000000    19.1362150000    38.7062490000
  108      C      35.3126980000    17.8556440000    39.1429900000
  109      C      36.3179320000    17.6892950000    40.1105580000
  110      C      36.8615950000    18.8537830000    40.6211740000
  111      C      36.3994670000    20.1216790000    40.2313310000
  112      C      36.9665450000    21.2814270000    40.7632060000
  113      C      38.1096120000    21.2346290000    41.6193080000
  114      C      39.3078380000    20.7727170000    41.0524440000
  115      C      40.5051310000    20.7160950000    41.8130840000
  116      C      40.3904650000    21.0979980000    43.1612550000
  117      C      39.1627660000    21.4476410000    43.7538680000
  118      C      38.0020480000    21.5900800000    42.9351230000
  119      C      36.4890140000    22.5175800000    40.3835750000
  120      C      36.9560170000    23.7838520000    40.7344590000
  121      C      37.9237820000    24.3380810000    41.5343930000
  122      C      38.1725620000    25.7324180000    41.5517960000
  123      C      37.5333290000    26.5973740000    40.6381800000
  124      C      37.9517060000    27.9151270000    40.4522630000
  125      C      39.1097640000    28.5157240000    41.0178720000
  126      C      39.6117710000    29.7349930000    40.6525990000
  127      C      39.0328330000    30.3102150000    39.5864720000
  128      C      39.4825900000    31.3902280000    38.8243750000
  129      C      38.0306400000    29.7423860000    38.8897480000
  130      C      37.4102290000    28.5581490000    39.2847180000
  131      C      36.5578080000    25.9816780000    39.8102650000
  132      C      36.2873120000    24.6575570000    39.9083860000
  133      C      41.5009800000    33.1796880000    41.0520290000
  134      C      42.2790600000    32.8769990000    42.1585080000
  135      H      43.6038440000    31.5418660000    43.1227760000
  136      H      43.8908500000    30.1477090000    40.9994700000
  137      H      41.9696240000    30.4051020000    39.2731210000
  138      H      42.5572740000    34.2133670000    38.8650740000
  139      H      42.6474530000    35.9750060000    37.2884140000
  140      H      41.0615200000    36.1774790000    35.4379160000
  141      H      39.4793550000    34.4799160000    35.0496600000
  142      H      37.2697300000    34.6099780000    35.6887630000
  143      H      35.7822150000    34.5167850000    33.6992420000
  144      H      35.4924770000    32.3455920000    32.4692880000
  145      H      36.4761510000    30.4243430000    33.2519990000
  146      H      38.2012710000    30.4548910000    35.0623020000
  147      H      36.0564800000    30.7686540000    36.4468150000
  148      H      34.9072340000    28.7268620000    37.0266080000
  149      H      34.4144360000    26.7023180000    37.2747310000
  150      H      34.0581970000    24.2177960000    37.4146390000
  151      H      34.5526010000    20.7641960000    36.3971670000
  152      H      32.4639970000    20.7621020000    35.1167110000
  153      H      30.3554170000    21.7516880000    36.1067310000
  154      H      30.5495910000    22.8386140000    38.3907780000
  155      H      32.7155990000    22.9842400000    39.5094340000
  156      H      34.1326450000    19.0973720000    37.8786620000
  157      H      34.9791950000    16.9689430000    38.6111450000
  158      H      36.4631920000    16.7460920000    40.6298600000
  159      H      37.6369860000    18.7760540000    41.3786390000
  160      H      39.3792720000    20.5885220000    39.9829520000
  161      H      41.4708790000    20.4309520000    41.4025460000
  162      H      41.2575720000    21.2698440000    43.7944490000
  163      H      39.1986080000    21.6261860000    44.8255580000
  164      H      37.0423130000    21.8516100000    43.3743480000
  165      H      38.5209880000    23.6846770000    42.1646270000
  166      H      38.8688660000    26.1185130000    42.2925340000
  167      H      39.6543460000    27.9639510000    41.7797050000
  168      H      40.3212970000    30.2710490000    41.2780840000
  169      H      40.7988850000    34.0069160000    40.9766620000
  170      H      42.2097020000    33.5428470000    43.0153390000
 ----------------------------------------------------------------

   18   -5124.8463897738      4.73e-09  Convergence criterion met
 Total energy in the final basis set =    -5124.8463897738

         TDDFT/TDA Excitation Energies
 ---------------------------------------------------

 Excited state   1: excitation energy (eV) =    1.5055
 Total energy for state  1:                 -5124.79106236 au
    Multiplicity: Singlet
    Trans. Mom.:  0.2187 X  -0.2602 Y  -0.1884 Z
    Strength   :     0.0055710498
    D(  420) --> V(    1) amplitude =  0.8549
    D(  420) --> V(    2) amplitude =  0.4341

 Excited state   2: excitation energy (eV) =    1.8242
 Total energy for state  2:                 -5124.77935019 au
    Multiplicity: Singlet
    Trans. Mom.: -0.0361 X   0.2134 Y  -0.0059 Z
    Strength   :     0.0020951612
    D(  420) --> V(    1) amplitude = -0.2490
    D(  420) --> V(    2) amplitude =  0.7350
    D(  420) --> V(    3) amplitude =  0.5773

 Excited state   3: excitation energy (eV) =    2.0964
 Total energy for state  3:                 -5124.76934862 au
    Multiplicity: Singlet
    Trans. Mom.:  0.2452 X   0.8015 Y  -0.1739 Z
    Strength   :     0.0376345408
    D(  420) --> V(    1) amplitude =  0.4169
    D(  420) --> V(    2) amplitude = -0.4537
    D(  420) --> V(    3) amplitude =  0.7428

 Excited state   4: excitation energy (eV) =    2.1635
 Total energy for state  4:                 -5124.76688166 au
    Multiplicity: Singlet
    Trans. Mom.: -0.0425 X  -0.5724 Y   0.0113 Z
    Strength   :     0.0174677250
    D(  415) --> V(    2) amplitude = -0.2512
    D(  416) --> V(    3) amplitude =  0.2735
    D(  417) --> V(    1) amplitude =  0.7978

 Excited state   5: excitation energy (eV) =    2.2364
 Total energy for state  5:                 -5124.76420412 au
    Multiplicity: Singlet
    Trans. Mom.: -1.5292 X  -4.1249 Y   0.9174 Z
    Strength   :     1.1064815789
    D(  420) --> V(    4) amplitude = -0.5144
    D(  420) --> V(    5) amplitude =  0.7514

 Excited state   6: excitation energy (eV) =    2.3902
 Total energy for state  6:                 -5124.75855062 au
    Multiplicity: Singlet
    Trans. Mom.: -0.0429 X   0.9276 Y   0.0087 Z
    Strength   :     0.0504960788
    D(  416) --> V(    2) amplitude = -0.2981
    D(  417) --> V(    2) amplitude =  0.8197

 Excited state   7: excitation energy (eV) =    2.4683
 Total energy for state  7:                 -5124.75568148 au
    Multiplicity: Singlet
    Trans. Mom.: -0.7011 X  -0.3822 Y   0.1954 Z
    Strength   :     0.0408645824
    D(  411) --> V(    2) amplitude = -0.2221
    D(  415) --> V(    2) amplitude = -0.2980
    D(  416) --> V(    1) amplitude =  0.7060

 Excited state   8: excitation energy (eV) =    2.4743
 Total energy for state  8:                 -5124.75546267 au
    Multiplicity: Singlet
    Trans. Mom.: -0.1333 X   0.5395 Y   0.1379 Z
    Strength   :     0.0198712650
    D(  410) --> V(    2) amplitude =  0.2588
    D(  411) --> V(    1) amplitude = -0.2179
    D(  416) --> V(    2) amplitude =  0.5995
    D(  417) --> V(    2) amplitude =  0.2370
    D(  417) --> V(    3) amplitude =  0.4060

 Excited state   9: excitation energy (eV) =    2.5299
 Total energy for state  9:                 -5124.75341812 au
    Multiplicity: Singlet
    Trans. Mom.: -0.2034 X  -1.0202 Y  -0.0456 Z
    Strength   :     0.0672042374
    D(  411) --> V(    1) amplitude = -0.2198
    D(  411) --> V(    3) amplitude =  0.2347
    D(  414) --> V(    1) amplitude =  0.2399
    D(  415) --> V(    1) amplitude =  0.4775
    D(  416) --> V(    1) amplitude = -0.2406
    D(  416) --> V(    2) amplitude =  0.2494
    D(  416) --> V(    3) amplitude =  0.2687
    D(  417) --> V(    1) amplitude = -0.3233

 Excited state  10: excitation energy (eV) =    2.5508
 Total energy for state 10:                 -5124.75265137 au
    Multiplicity: Singlet
    Trans. Mom.: -0.2772 X  -0.6806 Y   0.0458 Z
    Strength   :     0.0338814369
    D(  416) --> V(    2) amplitude = -0.3876
    D(  417) --> V(    3) amplitude =  0.7702

 Excited state  11: excitation energy (eV) =    2.5981
 Total energy for state 11:                 -5124.75091231 au
    Multiplicity: Singlet
    Trans. Mom.: -0.0215 X  -0.3485 Y  -0.0905 Z
    Strength   :     0.0082831504
    D(  420) --> V(    4) amplitude =  0.7398
    D(  420) --> V(    5) amplitude =  0.5004

 Excited state  12: excitation energy (eV) =    2.6219
 Total energy for state 12:                 -5124.75003782 au
    Multiplicity: Singlet
    Trans. Mom.: -0.3506 X  -0.0031 Y   0.1922 Z
    Strength   :     0.0102678990
    D(  414) --> V(    2) amplitude =  0.2960
    D(  415) --> V(    1) amplitude =  0.3952
    D(  415) --> V(    2) amplitude =  0.6358
    D(  416) --> V(    1) amplitude =  0.3443

 Excited state  13: excitation energy (eV) =    2.6559
 Total energy for state 13:                 -5124.74878546 au
    Multiplicity: Singlet
    Trans. Mom.: -0.5891 X   0.2188 Y   0.2883 Z
    Strength   :     0.0311024778
    D(  408) --> V(    3) amplitude =  0.2282
    D(  410) --> V(    3) amplitude = -0.2177
    D(  415) --> V(    1) amplitude = -0.3298
    D(  415) --> V(    3) amplitude =  0.4003
    D(  416) --> V(    3) amplitude =  0.6124

 Excited state  14: excitation energy (eV) =    2.6810
 Total energy for state 14:                 -5124.74786595 au
    Multiplicity: Singlet
    Trans. Mom.: -0.3049 X  -0.3905 Y   0.1525 Z
    Strength   :     0.0176500994
    D(  411) --> V(    1) amplitude =  0.2464
    D(  415) --> V(    3) amplitude =  0.2978
    D(  416) --> V(    2) amplitude =  0.2352
    D(  417) --> V(    3) amplitude =  0.2455
    D(  418) --> V(    1) amplitude = -0.2218
    D(  419) --> V(    1) amplitude =  0.4573
    D(  419) --> V(    2) amplitude =  0.2967

 Excited state  15: excitation energy (eV) =    2.7063
 Total energy for state 15:                 -5124.74693646 au
    Multiplicity: Singlet
    Trans. Mom.:  0.1379 X   0.1105 Y   0.0026 Z
    Strength   :     0.0020705960
    D(  412) --> V(    1) amplitude = -0.2844
    D(  413) --> V(    1) amplitude = -0.2184
    D(  414) --> V(    3) amplitude =  0.2990
    D(  415) --> V(    3) amplitude =  0.3864
    D(  416) --> V(    2) amplitude =  0.2229
    D(  416) --> V(    3) amplitude = -0.3427
    D(  419) --> V(    1) amplitude = -0.3843

 Excited state  16: excitation energy (eV) =    2.7264
 Total energy for state 16:                 -5124.74619673 au
    Multiplicity: Singlet
    Trans. Mom.:  0.1459 X   0.1433 Y  -0.4516 Z
    Strength   :     0.0164135943
    D(  412) --> V(    1) amplitude =  0.5139
    D(  413) --> V(    1) amplitude =  0.3724
    D(  415) --> V(    3) amplitude =  0.3129
    D(  417) --> V(    4) amplitude = -0.3360

 Excited state  17: excitation energy (eV) =    2.7815
 Total energy for state 17:                 -5124.74417029 au
    Multiplicity: Singlet
    Trans. Mom.: -0.0168 X   0.3036 Y  -0.0574 Z
    Strength   :     0.0065271734
    D(  411) --> V(    1) amplitude =  0.3158
    D(  411) --> V(    2) amplitude =  0.2648
    D(  412) --> V(    1) amplitude =  0.2658
    D(  412) --> V(    2) amplitude =  0.3376
    D(  415) --> V(    3) amplitude = -0.2687
    D(  418) --> V(    1) amplitude =  0.2725
    D(  419) --> V(    1) amplitude = -0.2667

 Excited state  18: excitation energy (eV) =    2.7934
 Total energy for state 18:                 -5124.74373460 au
    Multiplicity: Singlet
    Trans. Mom.:  0.0387 X  -0.0166 Y  -0.0299 Z
    Strength   :     0.0001823631
    D(  410) --> V(    2) amplitude = -0.2660
    D(  412) --> V(    1) amplitude =  0.2923
    D(  412) --> V(    2) amplitude = -0.5959
    D(  413) --> V(    2) amplitude = -0.2221
    D(  416) --> V(    2) amplitude =  0.2323

 Excited state  19: excitation energy (eV) =    2.8102
 Total energy for state 19:                 -5124.74311517 au
    Multiplicity: Singlet
    Trans. Mom.:  0.1623 X   0.2232 Y  -0.0618 Z
    Strength   :     0.0055042699
    D(  418) --> V(    1) amplitude =  0.6700
    D(  418) --> V(    2) amplitude =  0.3346
    D(  419) --> V(    1) amplitude =  0.4299

 Excited state  20: excitation energy (eV) =    2.8459
 Total energy for state 20:                 -5124.74180423 au
    Multiplicity: Singlet
    Trans. Mom.:  0.0762 X   0.4171 Y  -0.0469 Z
    Strength   :     0.0126865813
    D(  408) --> V(    2) amplitude = -0.2656
    D(  411) --> V(    2) amplitude =  0.2584
    D(  411) --> V(    3) amplitude =  0.2598
    D(  412) --> V(    3) amplitude =  0.2121
    D(  413) --> V(    2) amplitude = -0.2525
    D(  416) --> V(    3) amplitude = -0.2448

 Excited state  21: excitation energy (eV) =    2.8993
 Total energy for state 21:                 -5124.73984157 au
    Multiplicity: Singlet
    Trans. Mom.: -0.1715 X  -0.1148 Y   0.0105 Z
    Strength   :     0.0030339093
    D(  408) --> V(    1) amplitude = -0.2524
    D(  418) --> V(    4) amplitude = -0.3822
    D(  418) --> V(    5) amplitude =  0.6252

 Excited state  22: excitation energy (eV) =    2.9023
 Total energy for state 22:                 -5124.73973304 au
    Multiplicity: Singlet
    Trans. Mom.: -0.0938 X   0.1654 Y  -0.0115 Z
    Strength   :     0.0025801923
    D(  408) --> V(    1) amplitude = -0.3641
    D(  409) --> V(    3) amplitude = -0.2382
    D(  410) --> V(    1) amplitude = -0.3194
    D(  412) --> V(    3) amplitude =  0.2203
    D(  413) --> V(    3) amplitude =  0.2369
    D(  418) --> V(    4) amplitude =  0.2500
    D(  418) --> V(    5) amplitude = -0.4302

 Excited state  23: excitation energy (eV) =    2.9465
 Total energy for state 23:                 -5124.73810687 au
    Multiplicity: Singlet
    Trans. Mom.: -0.0794 X  -0.1571 Y  -0.0478 Z
    Strength   :     0.0024025168
    D(  409) --> V(    1) amplitude = -0.6458
    D(  409) --> V(    2) amplitude = -0.4055
    D(  410) --> V(    3) amplitude =  0.2274

 Excited state  24: excitation energy (eV) =    2.9619
 Total energy for state 24:                 -5124.73754321 au
    Multiplicity: Singlet
    Trans. Mom.: -0.0086 X   0.3497 Y  -0.0374 Z
    Strength   :     0.0089827887
    D(  410) --> V(    1) amplitude =  0.3134
    D(  410) --> V(    2) amplitude =  0.2387
    D(  410) --> V(    3) amplitude =  0.3663
    D(  412) --> V(    3) amplitude =  0.2912
    D(  419) --> V(    2) amplitude =  0.3540
    D(  419) --> V(    3) amplitude =  0.2927

 Excited state  25: excitation energy (eV) =    2.9654
 Total energy for state 25:                 -5124.73741184 au
    Multiplicity: Singlet
    Trans. Mom.: -0.1251 X  -0.0343 Y   0.0941 Z
    Strength   :     0.0018661775
    D(  408) --> V(    1) amplitude = -0.3944
    D(  409) --> V(    1) amplitude =  0.2243
    D(  409) --> V(    2) amplitude = -0.2736
    D(  412) --> V(    3) amplitude = -0.4291
    D(  413) --> V(    3) amplitude = -0.2335

 ---------------------------------------------------

                    Orbital Energies (a.u.)
 --------------------------------------------------------------

 Alpha MOs
 -- Occupied --
-10.3638 -10.3633 -10.3621 -10.3591 -10.3584 -10.3581 -10.3572 -10.3570
-10.3560 -10.3559 -10.3555 -10.3554 -10.3548 -10.3526 -10.3526 -10.3524
-10.3517 -10.3517 -10.3517 -10.3514 -10.3505 -10.3504 -10.3499 -10.3493
-10.3493 -10.3492 -10.3490 -10.3489 -10.3489 -10.3487 -10.3487 -10.3485
-10.3479 -10.3476 -10.3475 -10.3475 -10.3474 -10.3470 -10.3469 -10.3463
-10.3462 -10.3457 -10.3455 -10.3448 -10.3447 -10.3446 -10.3445 -10.3440
-10.3436 -10.3435 -10.3430 -10.3428 -10.3427 -10.3426 -10.3424 -10.3423
-10.3420 -10.3417 -10.3414 -10.3401 -10.3397 -10.3392 -10.3390 -10.3376
-10.3374 -10.3374 -10.3358 -10.3351 -10.3341 -10.3321 -10.3215 -10.3208
-10.3201 -10.3199 -10.3186 -10.3185 -10.3173 -10.3170 -10.3164 -10.3161
-10.3141 -10.3139 -10.3131 -10.3130 -10.3125 -10.3118 -10.3117 -10.3116
-10.3114 -10.3113 -10.3112 -10.3110 -10.3109 -10.3109 -10.3105 -10.3103
-10.3099 -10.3099 -10.3099 -10.3098 -10.3094 -10.3089 -10.3086 -10.3084
-10.3084 -10.3076 -10.3071 -10.3052 -10.3045 -10.3044 -10.3041 -10.3040
-10.3039 -10.3038 -10.3037 -10.3030 -10.3030 -10.3027 -10.3021 -10.3019
-10.3019 -10.3017 -10.3015 -10.3015 -10.3014 -10.3011 -10.2996 -10.2990
-10.2972 -10.2964 -10.2958 -10.2947 -10.2880 -10.2859  -1.1286  -1.1170
 -1.1077  -1.1024  -1.0863  -1.0813  -1.0748  -1.0690  -1.0631  -1.0496
 -1.0471  -1.0443  -1.0408  -1.0359  -1.0082  -1.0058  -1.0031  -0.9989
 -0.9983  -0.9967  -0.9881  -0.9855  -0.9808  -0.9790  -0.9709  -0.9652
 -0.9587  -0.9514  -0.9493  -0.9489  -0.9463  -0.9436  -0.9421  -0.9400
 -0.9389  -0.9281  -0.9238  -0.9227  -0.9212  -0.9171  -0.9052  -0.8886
 -0.8866  -0.8833  -0.8794  -0.8769  -0.8760  -0.8739  -0.8689  -0.8675
 -0.8664  -0.8641  -0.8610  -0.8609  -0.8599  -0.8591  -0.8573  -0.8547
 -0.8532  -0.8500  -0.8480  -0.8473  -0.8432  -0.8290  -0.8275  -0.8192
 -0.8125  -0.8074  -0.8006  -0.7951  -0.7932  -0.7918  -0.7876  -0.7838
 -0.7811  -0.7804  -0.7781  -0.7678  -0.7577  -0.7554  -0.7542  -0.7523
 -0.7434  -0.7429  -0.7381  -0.7336  -0.7284  -0.7238  -0.7223  -0.7180
 -0.7141  -0.7136  -0.7100  -0.7045  -0.7036  -0.7022  -0.7015  -0.7008
 -0.6992  -0.6964  -0.6937  -0.6916  -0.6899  -0.6898  -0.6890  -0.6848
 -0.6768  -0.6665  -0.6614  -0.6601  -0.6579  -0.6499  -0.6484  -0.6438
 -0.6424  -0.6413  -0.6409  -0.6370  -0.6310  -0.6282  -0.6255  -0.6194
 -0.6192  -0.6146  -0.6122  -0.6119  -0.6110  -0.6072  -0.6053  -0.6026
 -0.6000  -0.5994  -0.5944  -0.5903  -0.5898  -0.5887  -0.5882  -0.5874
 -0.5849  -0.5837  -0.5827  -0.5786  -0.5769  -0.5762  -0.5741  -0.5713
 -0.5656  -0.5643  -0.5632  -0.5631  -0.5618  -0.5605  -0.5598  -0.5584
 -0.5564  -0.5531  -0.5515  -0.5506  -0.5498  -0.5489  -0.5463  -0.5446
 -0.5415  -0.5405  -0.5399  -0.5382  -0.5365  -0.5363  -0.5340  -0.5338
 -0.5330  -0.5323  -0.5314  -0.5313  -0.5275  -0.5271  -0.5266  -0.5252
 -0.5230  -0.5211  -0.5207  -0.5185  -0.5163  -0.5158  -0.5152  -0.5143
 -0.5135  -0.5126  -0.5113  -0.5108  -0.5094  -0.5080  -0.5034  -0.5029
 -0.5004  -0.4996  -0.4988  -0.4986  -0.4950  -0.4931  -0.4917  -0.4890
 -0.4874  -0.4865  -0.4844  -0.4814  -0.4804  -0.4794  -0.4781  -0.4762
 -0.4750  -0.4677  -0.4662  -0.4607  -0.4601  -0.4594  -0.4582  -0.4570
 -0.4561  -0.4554  -0.4542  -0.4530  -0.4516  -0.4491  -0.4490  -0.4465
 -0.4462  -0.4456  -0.4450  -0.4428  -0.4412  -0.4409  -0.4403  -0.4378
 -0.4361  -0.4335  -0.4331  -0.4326  -0.4273  -0.4237  -0.4220  -0.4203
 -0.4190  -0.4138  -0.4113  -0.4078  -0.4049  -0.4024  -0.4015  -0.3964
 -0.3938  -0.3934  -0.3912  -0.3863  -0.3837  -0.3817  -0.3755  -0.3701
 -0.3663  -0.3560  -0.3528  -0.3423  -0.3377  -0.3366  -0.3337  -0.3317
 -0.3307  -0.3301  -0.3284  -0.3276  -0.3259  -0.3251  -0.3243  -0.3183
 -0.3160  -0.3148  -0.3111  -0.3075  -0.3031  -0.2951  -0.2937  -0.2923
 -0.2847  -0.2785  -0.2661  -0.2294

          Ground-State Mulliken Net Atomic Charges

     Atom                 Charge (a.u.)
  ----------------------------------------
      1 C                     0.294916
      2 C                     0.046655
      3 C                     0.006286
      4 C                    -0.165602
      5 C                    -0.024371
      6 C                     0.191361
      7 C                    -0.214108
      8 C                     0.206364
      9 C                     0.007270
     10 C                     0.083205
     11 C                    -0.203504
     12 C                    -0.077733
     13 C                     0.070633
     14 C                     0.145543
     15 C                     0.286272
     16 C                    -0.246891
     17 C                    -0.045629
     18 C                    -0.209490
     19 C                    -0.025086
     20 C                    -0.385646
     21 C                    -0.347728
     22 C                     0.160049
     23 C                     0.378380
     24 C                    -0.195633
     25 C                     0.137092
     26 C                    -0.024316
     27 C                    -0.094380
     28 C                    -0.102777
     29 C                    -0.066177
     30 C                    -0.418570
     31 C                     0.362753
     32 C                     0.110298
     33 C                     0.260346
     34 C                     0.101951
     35 C                     0.376370
     36 C                     0.186003
     37 C                     0.099202
     38 C                     0.204947
     39 C                     0.408520
     40 C                    -0.032392
     41 C                    -0.172078
     42 C                    -0.207412
     43 C                    -0.418307
     44 C                    -0.005733
     45 C                     0.038157
     46 C                    -0.352533
     47 C                    -0.099640
     48 C                    -0.063411
     49 C                    -0.230615
     50 C                    -0.079803
     51 C                     0.078552
     52 C                     0.032865
     53 C                    -0.011422
     54 C                     0.383334
     55 C                    -0.253725
     56 C                     0.155469
     57 C                     0.074722
     58 C                     0.106255
     59 C                     0.232661
     60 C                     0.054360
     61 C                    -0.097905
     62 C                    -0.033301
     63 C                    -0.292293
     64 C                     0.094527
     65 C                     0.016889
     66 C                    -0.128702
     67 C                    -0.152159
     68 C                     0.034027
     69 C                     0.047147
     70 C                    -0.065297
     71 C                    -0.226423
     72 C                    -0.286626
     73 C                    -0.349698
     74 C                     0.260380
     75 C                     0.186009
     76 C                     0.136724
     77 C                    -0.372285
     78 C                    -0.241698
     79 C                    -0.272528
     80 C                    -0.430419
     81 C                     0.270307
     82 C                     0.067015
     83 C                     0.234665
     84 C                    -0.386929
     85 C                    -0.203459
     86 C                    -0.259089
     87 C                    -0.231769
     88 C                    -0.388015
     89 C                    -0.084440
     90 C                     0.201656
     91 C                    -0.321393
     92 C                    -0.358473
     93 C                     0.092572
     94 C                     0.375713
     95 C                    -0.510549
     96 C                    -0.320362
     97 C                     0.138287
     98 C                     0.100598
     99 C                     0.070748
    100 C                     0.262965
    101 C                    -0.433932
    102 C                    -0.224220
    103 C                    -0.263152
    104 C                    -0.235258
    105 C                    -0.375653
    106 C                     0.346166
    107 C                    -0.451906
    108 C                    -0.263255
    109 C                    -0.275833
    110 C                    -0.378171
    111 C                     0.199685
    112 C                     0.007243
    113 C                     0.279406
    114 C                    -0.382418
    115 C                    -0.260723
    116 C                    -0.214086
    117 C                    -0.266573
    118 C                    -0.427372
    119 C                     0.110931
    120 C                     0.138906
    121 C                    -0.279696
    122 C                    -0.552693
    123 C                     0.398988
    124 C                     0.074550
    125 C                    -0.365714
    126 C                    -0.371267
    127 C                     0.158668
    128 C                    -0.052821
    129 C                    -0.330494
    130 C                    -0.010455
    131 C                     0.019057
    132 C                    -0.465624
    133 C                    -0.392088
    134 C                    -0.254473
    135 H                     0.227204
    136 H                     0.228747
    137 H                     0.263180
    138 H                     0.262533
    139 H                     0.209725
    140 H                     0.220654
    141 H                     0.257458
    142 H                     0.264233
    143 H                     0.211255
    144 H                     0.230079
    145 H                     0.225751
    146 H                     0.273595
    147 H                     0.270853
    148 H                     0.211009
    149 H                     0.231276
    150 H                     0.274178
    151 H                     0.264967
    152 H                     0.221979
    153 H                     0.230653
    154 H                     0.222985
    155 H                     0.270420
    156 H                     0.265035
    157 H                     0.210890
    158 H                     0.219040
    159 H                     0.272725
    160 H                     0.260865
    161 H                     0.233851
    162 H                     0.216514
    163 H                     0.224627
    164 H                     0.272010
    165 H                     0.257993
    166 H                     0.228614
    167 H                     0.218306
    168 H                     0.278133
    169 H                     0.257429
    170 H                     0.223012
  ----------------------------------------
  Sum of atomic charges =     0.000000

                    Cartesian Multipole Moments
 -----------------------------------------------------------------
    Charge (ESU x 10^10)
                -0.0000
    Dipole Moment (Debye)
         X      -1.1032      Y       0.4574      Z       1.1849
       Tot       1.6823
    Quadrupole Moments (Debye-Ang)
        XX    -824.8650     XY     -12.4076     YY    -709.9424
        XZ      36.9657     YZ      46.6623     ZZ    -643.3853

 Total job time:  11816.43s(wall), 259723.54s(cpu)
        *  Thank you very much for using Q-Chem.  Have a nice day.  *
