 Gaussian 16, Revision B.01,
 Gaussian 16:  ES64L-G16RevB.01 20-Dec-2017

 ------------------
 # b3lyp/6-31g* opt
 ------------------

 ---
 opt
 ---
 Symbolic Z-matrix:
 Charge =  0 Multiplicity = 1

 SCF Done:  E(RB3LYP) =  -232.443281160     A.U. after   12 cycles
 SCF Done:  E(RB3LYP) =  -232.448682523     A.U. after   11 cycles
 SCF Done:  E(RB3LYP) =  -232.449251371     A.U. after   10 cycles
 SCF Done:  E(RB3LYP) =  -232.449301492     A.U. after    9 cycles
 SCF Done:  E(RB3LYP) =  -232.449308602     A.U. after    8 cycles
 SCF Done:  E(RB3LYP) =  -232.449309258     A.U. after    7 cycles
 SCF Done:  E(RB3LYP) =  -232.449309426     A.U. after    7 cycles
 SCF Done:  E(RB3LYP) =  -232.449309733     A.U. after    7 cycles
 SCF Done:  E(RB3LYP) =  -232.449310396     A.U. after    8 cycles
 SCF Done:  E(RB3LYP) =  -232.449311566     A.U. after    9 cycles
 SCF Done:  E(RB3LYP) =  -232.449396026     A.U. after   11 cycles
 SCF Done:  E(RB3LYP) =  -232.449419299     A.U. after   11 cycles
 SCF Done:  E(RB3LYP) =  -232.449399698     A.U. after   11 cycles
 SCF Done:  E(RB3LYP) =  -232.449436139     A.U. after   10 cycles
 SCF Done:  E(RB3LYP) =  -232.449436199     A.U. after    9 cycles
 SCF Done:  E(RB3LYP) =  -232.449441570     A.U. after   10 cycles
 SCF Done:  E(RB3LYP) =  -232.449445583     A.U. after   11 cycles
 SCF Done:  E(RB3LYP) =  -232.449448556     A.U. after    9 cycles
 SCF Done:  E(RB3LYP) =  -232.449449314     A.U. after    9 cycles
 SCF Done:  E(RB3LYP) =  -232.449449433     A.U. after    7 cycles
 Optimization completed.
    -- Stationary point found.

                         Standard orientation:
 ---------------------------------------------------------------------
 Center     Atomic      Atomic             Coordinates (Angstroms)
 Number     Number       Type             X           Y           Z
 ---------------------------------------------------------------------
      1          6           0       -1.165449   -0.430632    0.131825
      2          1           0       -1.948788   -0.823415   -0.527132
      3          1           0       -1.535618   -0.483328    1.167596
      4          6           0       -0.733771    0.996808   -0.226764
      5          1           0       -1.343897    1.761318    0.264300
      6          1           0       -0.797158    1.155695   -1.310044
      7          6           0        0.733945    0.996704    0.226793
      8          1           0        0.797382    1.155542    1.310074
      9          1           0        1.344162    1.761135   -0.264277
     10          6           0        1.165347   -0.430821   -0.131879
     11          1           0        1.948710   -0.823727    0.526981
     12          1           0        1.535421   -0.483490   -1.167694
     13          8           0       -0.000081   -1.251510    0.000043
 ---------------------------------------------------------------------

 The electronic state is 1-A.
 Alpha  occ. eigenvalues --  -19.13179 -10.22385 -10.22384 -10.18719 -10.18698
 Alpha  occ. eigenvalues --   -1.01877  -0.78004  -0.73111  -0.59256  -0.58665
 Alpha  occ. eigenvalues --   -0.49653  -0.48518  -0.42396  -0.42352  -0.39908
 Alpha  occ. eigenvalues --   -0.35258  -0.34849  -0.33340  -0.30642  -0.23737
 Alpha virt. eigenvalues --    0.08753   0.11250   0.13598   0.14202   0.15993
 Alpha virt. eigenvalues --    0.16190   0.16876   0.18076   0.21111   0.21428
 Alpha virt. eigenvalues --    0.24023   0.26390   0.29767   0.51952   0.53356

 Mulliken charges:
               1
     1  C   -0.002849
     2  H    0.137843
     3  H    0.126069
     4  C   -0.305655
     5  H    0.144404
     6  H    0.146748
     7  C   -0.305646
     8  H    0.146748
     9  H    0.144402
    10  C   -0.002846
    11  H    0.137839
    12  H    0.126053
    13  O   -0.493110
 Sum of Mulliken charges =  -0.00000

 Dipole moment (field-independent basis, Debye):
    X=             -0.0000    Y=              1.7891    Z=             -0.0001  Tot=              1.7891
 Quadrupole moment (field-independent basis, Debye-Ang):
   XX=            -28.9927   YY=            -34.4581   ZZ=            -30.7664
   XY=             -0.0003   XZ=             -0.0861   YZ=              0.0001

 Normal termination of Gaussian 16 at Wed Aug  5 14:08:31 2020.
