 Q-Chem 4.4, Q-Chem, Inc., Pleasanton, CA (2016)
 Q-Chem 4.4.2 for Intel X86 Linux

User input:
--------------------------------------------------------------
$molecule
read                  triad_conf3.txt
$end

$rem
JOBTYPE               sp        ! single point charge calculation
EXCHANGE              general   !
CORRELATION           none      !
BASIS                 SV       !
SYM_IGNORE            TRUE      !
purecart              2111      !
separate_jk           TRUE      !
derscreen             FALSE     !
ideriv                0         !
OMEGA                 157       ! geometric parameter tuned for geometry
MAX_SCF_CYCLES        5000      !
scf_convergence       8         ! for SP, default is 5 ; for opt/freq, default is 8
CIS_DYNAMIC_MEM       True      ! using dynamic memory for large TDDFT calculation
MEM_STATIC            16000     ! static memory for storing data.
MEM_TOTAL             180000    !
max_cis_cycles        500000    !
CIS_N_ROOTS           25        ! number of excited states
CIS_SINGLETS          true      ! compute singlet excited states, default is true
CIS_TRIPLETS          false     ! compute triplet excited states, default is true
RPA                   false     ! false: TDA-DFT, true: TDA- and TDDFT , 2: TDDFT
sts_fcd               true      ! compute electronic couplings with FCD method
sts_donor             61-207    ! donor atom index
sts_acceptor          1-60      ! acceptor atom index
POP_MULLIKEN          -1        ! get Mulliken Charge for ground and excited states
GUI                   2         ! for producing wavefunction .fchk file
state_analysis        true      ! state analysis module
MOLDEN_FORMAT         true      ! generate molden formatted NTO
$end

$xc_functional
X HF 1.0
X BNL 1.0
C LYP 1.0
$end

--------------------------------------------------------------

             Standard Nuclear Orientation (Angstroms)
    I     Atom           X                Y                Z
 ----------------------------------------------------------------
    1      C      40.0354232788    34.0774765015    50.6230583191
    2      C      39.3375015259    39.2456588745    54.4122352600
    3      C      37.7822418213    37.7505607605    53.7549095154
    4      C      37.7874031067    35.5453605652    52.8895454407
    5      C      41.7508468628    39.4723320007    54.5249443054
    6      C      40.5537376404    39.8450775146    53.9777030945
    7      C      40.5060310364    37.8795623779    55.8136940002
    8      C      38.6960906982    35.9232559204    55.0635795593
    9      C      41.0207328796    33.3150634766    52.4584770203
   10      C      41.7626724243    38.4628143311    55.4941520691
   11      C      39.0670547485    33.9857864380    51.5865974426
   12      C      44.0527305603    37.9965400696    52.3011512756
   13      C      42.7496833801    39.5299530029    53.5501518250
   14      C      43.9683799744    35.8060226440    51.4200782776
   15      C      43.0775718689    34.2826156616    53.0861396790
   16      C      43.3669319153    34.6029853821    51.7157249451
   17      C      43.7245788574    37.4989662170    54.4290809631
   18      C      40.7547073364    36.4983558655    55.9989738464
   19      C      39.8762168884    35.4876174927    55.5981025696
   20      C      41.6049079895    34.0674552917    54.7649269104
   21      C      38.9829292297    38.7133827209    49.7577323914
   22      C      40.1545410156    39.5685310364    50.3603096008
   23      C      38.1704521179    38.4735908508    51.0485954285
   24      C      38.6760444641    39.2681312561    52.0732231140
   25      C      42.4195785522    35.2759780884    49.8457221985
   26      C      41.4932441711    39.1472244263    50.1946067810
   27      C      38.1766128540    35.0393142700    51.6707954407
   28      C      43.4591865540    38.4987754822    51.1482124329
   29      C      42.1367835999    39.9597244263    52.3849754333
   30      C      43.3621940613    36.2272262573    50.2890357971
   31      C      37.6630554199    37.2157287598    51.3532447815
   32      C      44.0663032532    36.3325576782    53.7662162781
   33      C      43.5657615662    35.1439590454    54.0991935730
   34      C      40.2840576172    34.3243522644    55.0118217468
   35      C      42.0673828125    36.3100318909    55.6779594421
   36      C      39.4642829895    37.4135932922    49.0364570618
   37      C      40.9692649841    37.1057205200    49.1097755432
   38      C      39.0223922729    36.0454673767    49.6683006287
   39      C      41.1881484985    35.7077560425    49.2804908752
   40      C      41.9584503174    33.5942916870    53.4626121521
   41      C      39.7878227234    39.9566802979    51.6795387268
   42      C      38.1661186218    36.0762863159    50.7779426575
   43      C      39.9807434082    35.1283073425    49.6733741760
   44      C      37.4775962830    36.8892326355    52.7195243835
   45      C      42.4313430786    34.2378005981    50.7722816467
   46      C      41.8876113892    38.0258789062    49.5702934265
   47      C      42.4932136536    39.4233322144    51.2034645081
   48      C      38.4553260803    38.9234352112    53.4182853699
   49      C      40.7657241821    40.1904258728    52.6346931458
   50      C      42.5391616821    35.1029701233    55.1218376160
   51      C      43.0781974792    37.6250152588    50.1629600525
   52      C      41.2275314331    33.6424789429    51.1443061829
   53      C      39.3101959229    38.1985893250    55.2638740540
   54      C      38.4037094116    37.2587623596    54.8842811584
   55      C      38.3203582764    35.0577659607    54.0585289001
   56      C      39.6648368835    33.5284233093    52.7619132996
   57      C      43.7452468872    38.5437545776    53.5374488831
   58      C      44.2588882446    36.6584014893    52.4528160095
   59      C      39.3271598816    34.0234298706    54.0280036926
   60      C      42.7351646423    37.4634170532    55.4076881409
   61      C      38.0670280457    39.3503799438    48.6803474426
   62      N      38.0410423279    38.6975517273    47.5675086975
   63      C      38.8936996460    37.5009269714    47.5827980042
   64      H      39.7679786682    37.5710716248    46.9305915833
   65      H      38.2552642822    36.6205635071    47.4731407166
   66      C      36.8987884521    43.5469360352    48.4453773499
   67      C      37.0632934570    42.9184722900    49.7161598206
   68      H      36.8763275146    43.3872375488    50.6788978577
   69      C      37.4520301819    41.5589981079    49.7039299011
   70      H      37.3500518799    41.0039329529    50.6329460144
   71      C      37.6860923767    40.8308219910    48.5706520081
   72      C      37.1694374084    42.8418045044    47.2564888000
   73      H      37.2353706360    43.3188133240    46.2819709778
   74      C      37.5735244751    41.4632225037    47.3057289124
   75      H      37.8775444031    40.8281631470    46.4775733948
   76      C      36.4470558167    44.9889793396    48.4549140930
   77      C      36.1618041992    45.6734390259    49.7085609436
   78      C      35.2735481262    45.4148406982    50.7537193298
   79      H      34.5723228455    44.5951423645    50.8703422546
   80      C      35.4127960205    46.4666175842    51.7074470520
   81      H      34.7789382935    46.6542587280    52.5678215027
   82      C      36.5077247620    47.2139015198    51.2673377991
   83      N      36.8784561157    46.7286949158    50.0700645447
   84      H      37.6741371155    47.1329231262    49.5950737000
   85      C      36.9818458557    48.4485816956    51.7833213806
   86      H      36.5460739136    48.7651481628    52.7297935486
   87      C      37.9546394348    49.2711791992    51.2820854187
   88      C      38.3554306030    50.4498786926    51.9450111389
   89      H      38.0185699463    50.7914886475    52.9181709290
   90      C      39.1856193542    51.0529403687    51.0890998840
   91      H      39.8032455444    51.9089965820    51.3399696350
   92      C      39.3793754578    50.1290702820    49.9375343323
   93      N      38.4826316833    49.1346778870    50.0260047913
   94      C      40.1786880493    50.3927001953    48.7626838684
   95      C      39.6458015442    50.2701072693    47.4801521301
   96      C      39.6684455872    51.1100463867    46.3260612488
   97      H      40.2832145691    51.9764976501    46.1057395935
   98      C      38.7210006714    50.6219291687    45.4483757019
   99      H      38.5144500732    51.0854988098    44.4893760681
  100      C      38.1628074646    49.4025154114    45.8914833069
  101      N      38.6912803650    49.3176918030    47.1224250793
  102      H      38.5034523010    48.4906120300    47.6726799011
  103      C      37.3843803406    48.5420150757    45.2974739075
  104      H      37.1781730652    48.7810516357    44.2552375793
  105      C      36.8882942200    47.2838897705    45.8086280823
  106      C      35.9420585632    46.3675117493    45.2803916931
  107      H      35.4601554871    46.6082839966    44.3385734558
  108      C      35.6696891785    45.3721885681    46.1845207214
  109      H      34.8715858459    44.6455116272    46.0740470886
  110      C      36.5238647461    45.6212081909    47.2113533020
  111      N      37.2249450684    46.7114791870    46.9919853210
  112      C      44.3698692322    51.2161941528    49.5163612366
  113      C      43.9037017822    51.2548980713    48.2117424011
  114      H      44.5987014771    51.5583152771    47.4329643250
  115      C      42.5376510620    50.9619064331    48.0142326355
  116      H      42.1130332947    50.9326477051    47.0140266418
  117      C      41.6249275208    50.5899620056    49.0572700500
  118      C      43.5609664917    50.8213119507    50.5692558289
  119      H      44.0526618958    50.8394737244    51.5385246277
  120      C      42.2030220032    50.4961166382    50.3825035095
  121      H      41.6941680908    50.1613235474    51.2828102112
  122      N      45.7144050598    51.5772132874    49.8264884949
  123      H      46.2441368103    50.8552131653    50.2914390564
  124      C      46.3673248291    52.7218513489    49.4325752258
  125      O      45.7272682190    53.5048751831    48.7146339417
  126      C      47.7668151855    52.9835205078    49.9104957581
  127      C      48.6333236694    53.6718559265    49.1291313171
  128      H      48.1996383667    53.9406394958    48.1693153381
  129      C      49.9333648682    53.9222106934    49.4703559875
  130      C      50.2866363525    53.6131591797    50.8218269348
  131      H      51.2892303467    53.8970298767    51.1313285828
  132      C      49.5198059082    52.8598289490    51.6412925720
  133      H      49.8192520142    52.6221008301    52.6588325500
  134      C      48.2217864990    52.6074295044    51.2399864197
  135      H      47.5856781006    51.9414291382    51.8173789978
  136      C      50.9090194702    54.4949302673    48.5506782532
  137      H      50.3911743164    54.6442718506    47.6043891907
  138      C      52.2227020264    54.8074569702    48.7316932678
  139      H      52.5956802368    54.6166610718    49.7368812561
  140      C      53.2118301392    55.2492675781    47.7645759583
  141      C      52.7480545044    55.1227645874    46.3477668762
  142      H      51.9081268311    54.4342727661    46.2339057922
  143      H      53.4808731079    54.5973014832    45.7318687439
  144      H      52.6147918701    56.1424407959    45.9803962708
  145      C      54.5160522461    55.4657897949    48.0210227966
  146      H      54.7849426270    55.4776382446    49.0762367249
  147      C      55.5187530518    55.7123336792    47.0043907166
  148      H      55.2420043945    55.8423080444    45.9591941833
  149      C      56.7870330811    56.0032272339    47.2704582214
  150      H      57.0867919922    55.9341964722    48.3151130676
  151      C      57.9219970703    56.3962020874    46.5211601257
  152      C      58.2441329956    55.5998458862    45.2760734558
  153      H      57.4816207886    54.8210525513    45.2089805603
  154      H      58.2547149658    56.2850189209    44.4258384705
  155      H      59.1562805176    55.0261306763    45.4530143738
  156      C      58.8243331909    57.2888183594    47.0005378723
  157      H      58.4545059204    57.8941421509    47.8268241882
  158      C      60.0394973755    57.7132873535    46.2731895447
  159      H      60.1955413818    57.4872131348    45.2194099426
  160      C      60.9815063477    58.4926300049    46.9029121399
  161      H      60.8648300171    58.7879028320    47.9446067810
  162      C      62.3266372681    58.9687500000    46.3968925476
  163      H      62.4378280640    58.7128219604    45.3442497253
  164      C      63.2137145996    59.8088607788    46.9550132751
  165      C      62.8637542725    60.5107345581    48.2898292542
  166      H      61.8711318970    60.9563369751    48.1971321106
  167      H      62.6499862671    59.8456420898    49.1291313171
  168      H      63.6334609985    61.1590118408    48.7137947083
  169      C      64.3884201050    60.2743453979    46.2040061951
  170      H      64.5033721924    59.9164352417    45.1819419861
  171      C      65.5571136475    60.8038864136    46.6505241394
  172      H      65.6901702881    60.7955093384    47.7313270569
  173      C      66.8042068481    61.0444869995    45.8471031189
  174      H      66.7086410522    60.8514938354    44.7796058655
  175      C      68.0120697021    61.4464492798    46.2904624939
  176      C      68.4663772583    61.7874221802    47.6376228333
  177      H      67.5901184082    61.5910263062    48.2589683533
  178      H      69.2062606812    60.9910430908    47.7416496277
  179      H      68.8741226196    62.7997665405    47.6743965149
  180      C      69.1084442139    61.6901550293    45.3208656311
  181      H      69.9714355469    62.2425842285    45.6896400452
  182      C      69.1534576416    61.2274246216    44.0655250549
  183      H      68.3561553955    60.6046905518    43.6625022888
  184      C      70.2929534912    61.5349426270    43.1423530579
  185      C      71.5845184326    61.3934402466    43.3867835999
  186      C      72.1784896851    60.7833557129    44.6870765686
  187      H      72.9077377319    59.9811630249    44.5561256409
  188      H      72.7520599365    61.5001678467    45.2784004211
  189      H      71.4012832642    60.3035507202    45.2855720520
  190      C      72.6597671509    61.7304000854    42.4492607117
  191      H      73.5013885498    61.0350799561    42.4235267639
  192      H      72.9391403198    62.6954193115    42.8772315979
  193      C      72.2086944580    61.8342971802    41.0248832703
  194      H      72.1416702271    60.8909454346    40.4789314270
  195      H      72.9668731689    62.2983398438    40.3906135559
  196      C      70.9324798584    62.6505050659    40.9287681580
  197      H      71.0923843384    63.6596984863    41.3140449524
  198      H      70.6331710815    62.7740859985    39.8858909607
  199      C      69.8223876953    61.9744415283    41.7014350891
  200      C      68.6898269653    62.9339447021    41.8104515076
  201      H      68.9211349487    63.8601531982    42.3406333923
  202      H      68.3896560669    63.2328491211    40.8039588928
  203      H      67.7638320923    62.5764007568    42.2656059265
  204      C      69.2917175293    60.7964096069    40.8260536194
  205      H      69.0398788452    61.1254119873    39.8157157898
  206      H      70.0665740967    60.0303497314    40.8982582092
  207      H      68.3942337036    60.3436431885    41.2526435852
 ----------------------------------------------------------------

   19   -5399.8582526511      7.75E-09 Convergence criterion met
 Total energy in the final basis set = -5399.8582526511

         TDDFT/TDA Excitation Energies
 ---------------------------------------------------

 Excited state   1: excitation energy (eV) =    1.7185
    Total energy for state   1:  -5399.795097494319
    Multiplicity: Singlet
    Trans. Mom.: -0.2388 X  -1.0749 Y   0.1318 Z
    Strength   :     0.0517821164
    D(450) --> V(  3) amplitude = -0.7515
    D(450) --> V(  4) amplitude = -0.4341

 Excited state   2: excitation energy (eV) =    1.7274
    Total energy for state   2:  -5399.794773684775
    Multiplicity: Singlet
    Trans. Mom.: -1.2227 X  -3.0734 Y   0.3521 Z
    Strength   :     0.4682593004
    D(450) --> V(  3) amplitude =  0.2299
    D(452) --> V(  7) amplitude =  0.2212
    D(455) --> V(  1) amplitude =  0.6815
    D(455) --> V(  3) amplitude = -0.4504
    D(455) --> V(  4) amplitude = -0.2652

 Excited state   3: excitation energy (eV) =    1.7837
    Total energy for state   3:  -5399.792701530447
    Multiplicity: Singlet
    Trans. Mom.:  0.0981 X  -0.0902 Y  -0.0558 Z
    Strength   :     0.0009119752
    D(449) --> V(  1) amplitude =  0.9341
    D(449) --> V(  2) amplitude =  0.2186

 Excited state   4: excitation energy (eV) =    1.8157
    Total energy for state   4:  -5399.791525494640
    Multiplicity: Singlet
    Trans. Mom.:  0.0049 X   0.2897 Y   0.0968 Z
    Strength   :     0.0041507219
    D(449) --> V(  1) amplitude =  0.2236
    D(449) --> V(  2) amplitude = -0.9334

 Excited state   5: excitation energy (eV) =    1.8212
    Total energy for state   5:  -5399.791324004321
    Multiplicity: Singlet
    Trans. Mom.: -0.3404 X  -0.1534 Y  -0.1838 Z
    Strength   :     0.0077279762
    D(452) --> V(  3) amplitude =  0.5153
    D(452) --> V(  4) amplitude =  0.2978
    D(455) --> V(  1) amplitude = -0.5047
    D(455) --> V(  7) amplitude =  0.5156

 Excited state   6: excitation energy (eV) =    1.8794
    Total energy for state   6:  -5399.789186350421
    Multiplicity: Singlet
    Trans. Mom.:  1.4628 X   2.4041 Y  -0.2043 Z
    Strength   :     0.3665672944
    D(452) --> V(  3) amplitude =  0.3246
    D(452) --> V(  7) amplitude = -0.2127
    D(455) --> V(  1) amplitude =  0.4150
    D(455) --> V(  2) amplitude =  0.3486
    D(455) --> V(  3) amplitude =  0.5506
    D(455) --> V(  4) amplitude =  0.2650
    D(455) --> V(  7) amplitude =  0.2998

 Excited state   7: excitation energy (eV) =    1.9261
    Total energy for state   7:  -5399.787469127317
    Multiplicity: Singlet
    Trans. Mom.: -0.6099 X  -0.8485 Y   0.0425 Z
    Strength   :     0.0516103305
    D(455) --> V(  2) amplitude =  0.9116
    D(455) --> V(  3) amplitude = -0.2265

 Excited state   8: excitation energy (eV) =    1.9418
    Total energy for state   8:  -5399.786893084411
    Multiplicity: Singlet
    Trans. Mom.:  0.0236 X  -0.1733 Y  -0.0655 Z
    Strength   :     0.0016586831
    D(447) --> V(  1) amplitude = -0.9234

 Excited state   9: excitation energy (eV) =    2.0153
    Total energy for state   9:  -5399.784192007399
    Multiplicity: Singlet
    Trans. Mom.: -0.0705 X  -0.0456 Y  -0.0165 Z
    Strength   :     0.0003616094
    D(445) --> V(  2) amplitude =  0.4332
    D(447) --> V(  2) amplitude =  0.8476

 Excited state  10: excitation energy (eV) =    2.1247
    Total energy for state  10:  -5399.780172691209
    Multiplicity: Singlet
    Trans. Mom.:  0.0077 X  -0.0340 Y   0.0559 Z
    Strength   :     0.0002259948
    D(442) --> V(  1) amplitude = -0.3849
    D(442) --> V(  2) amplitude = -0.3486
    D(445) --> V(  1) amplitude = -0.4596
    D(445) --> V(  2) amplitude = -0.5557
    D(447) --> V(  2) amplitude =  0.2381

 Excited state  11: excitation energy (eV) =    2.1482
    Total energy for state  11:  -5399.779307513342
    Multiplicity: Singlet
    Trans. Mom.: -0.2881 X  -0.7634 Y   0.1910 Z
    Strength   :     0.0369607504
    D(448) --> V(  3) amplitude =  0.7705
    D(448) --> V(  4) amplitude =  0.4439

 Excited state  12: excitation energy (eV) =    2.2004
    Total energy for state  12:  -5399.777388995019
    Multiplicity: Singlet
    Trans. Mom.: -0.0283 X   0.0905 Y   0.0443 Z
    Strength   :     0.0005901582
    D(441) --> V(  2) amplitude = -0.2200
    D(442) --> V(  1) amplitude =  0.2822
    D(442) --> V(  2) amplitude = -0.2272
    D(445) --> V(  1) amplitude =  0.5472
    D(445) --> V(  2) amplitude = -0.5583
    D(449) --> V(  4) amplitude = -0.2491

 Excited state  13: excitation energy (eV) =    2.2628
    Total energy for state  13:  -5399.775095763794
    Multiplicity: Singlet
    Trans. Mom.:  0.0468 X  -0.0212 Y  -0.0030 Z
    Strength   :     0.0001471434
    D(442) --> V(  1) amplitude = -0.6410
    D(443) --> V(  1) amplitude =  0.2368
    D(445) --> V(  1) amplitude =  0.5731

 Excited state  14: excitation energy (eV) =    2.2957
    Total energy for state  14:  -5399.773888135968
    Multiplicity: Singlet
    Trans. Mom.:  0.0196 X  -0.0504 Y  -0.0409 Z
    Strength   :     0.0002587577
    D(442) --> V(  2) amplitude = -0.7368
    D(443) --> V(  2) amplitude =  0.2673
    D(445) --> V(  2) amplitude =  0.3055
    D(447) --> V(  2) amplitude = -0.2962

 Excited state  15: excitation energy (eV) =    2.3745
    Total energy for state  15:  -5399.770993204516
    Multiplicity: Singlet
    Trans. Mom.:  0.0305 X   0.0143 Y   0.0136 Z
    Strength   :     0.0000767869
    D(441) --> V(  1) amplitude =  0.5903
    D(442) --> V(  1) amplitude = -0.2334
    D(447) --> V(  4) amplitude = -0.3088
    D(449) --> V(  3) amplitude =  0.2674
    D(449) --> V(  4) amplitude = -0.4538

 Excited state  16: excitation energy (eV) =    2.3881
    Total energy for state  16:  -5399.770492996579
    Multiplicity: Singlet
    Trans. Mom.:  0.0592 X  -0.0271 Y  -0.0033 Z
    Strength   :     0.0002484821
    D(455) --> V(  3) amplitude = -0.4820
    D(455) --> V(  4) amplitude =  0.8474

 Excited state  17: excitation energy (eV) =    2.4461
    Total energy for state  17:  -5399.768360829917
    Multiplicity: Singlet
    Trans. Mom.:  0.1433 X  -0.0660 Y   0.0695 Z
    Strength   :     0.0017815950
    D(441) --> V(  1) amplitude = -0.5599
    D(442) --> V(  1) amplitude = -0.2878
    D(449) --> V(  3) amplitude =  0.3383
    D(449) --> V(  4) amplitude = -0.5480

 Excited state  18: excitation energy (eV) =    2.5274
    Total energy for state  18:  -5399.765371409183
    Multiplicity: Singlet
    Trans. Mom.: -0.1156 X  -0.1249 Y   0.0763 Z
    Strength   :     0.0021536001
    D(441) --> V(  1) amplitude =  0.2352
    D(445) --> V(  3) amplitude =  0.3574
    D(445) --> V(  4) amplitude = -0.6156
    D(447) --> V(  3) amplitude = -0.2722
    D(447) --> V(  4) amplitude =  0.4709

 Excited state  19: excitation energy (eV) =    2.5911
    Total energy for state  19:  -5399.763032023097
    Multiplicity: Singlet
    Trans. Mom.: -0.0194 X   0.0625 Y  -0.0139 Z
    Strength   :     0.0002843378
    D(442) --> V(  3) amplitude =  0.4225
    D(442) --> V(  4) amplitude = -0.7202
    D(443) --> V(  4) amplitude =  0.2524
    D(447) --> V(  4) amplitude =  0.2193

 Excited state  20: excitation energy (eV) =    2.6477
    Total energy for state  20:  -5399.760950620792
    Multiplicity: Singlet
    Trans. Mom.: -0.0910 X  -0.1022 Y  -0.0173 Z
    Strength   :     0.0012340258
    D(441) --> V(  1) amplitude =  0.2769
    D(442) --> V(  2) amplitude =  0.2152
    D(442) --> V(  4) amplitude =  0.2455
    D(445) --> V(  3) amplitude = -0.2920
    D(445) --> V(  4) amplitude =  0.4945
    D(447) --> V(  3) amplitude = -0.3126
    D(447) --> V(  4) amplitude =  0.5245

 Excited state  21: excitation energy (eV) =    2.6484
    Total energy for state  21:  -5399.760925359038
    Multiplicity: Singlet
    Trans. Mom.: -0.0462 X   0.0047 Y  -0.0002 Z
    Strength   :     0.0001401941
    D(454) --> V(  1) amplitude =  0.9828

 Excited state  22: excitation energy (eV) =    2.6784
    Total energy for state  22:  -5399.759824647383
    Multiplicity: Singlet
    Trans. Mom.: -0.1064 X   0.1625 Y  -0.0881 Z
    Strength   :     0.0029855445
    D(441) --> V(  1) amplitude = -0.2478
    D(441) --> V(  2) amplitude = -0.8567

 Excited state  23: excitation energy (eV) =    2.7164
    Total energy for state  23:  -5399.758425620114
    Multiplicity: Singlet
    Trans. Mom.:  0.0255 X   0.0040 Y  -0.0020 Z
    Strength   :     0.0000445694
    D(454) --> V(  2) amplitude =  0.9862

 Excited state  24: excitation energy (eV) =    2.7749
    Total energy for state  24:  -5399.756278425610
    Multiplicity: Singlet
    Trans. Mom.: -0.0076 X   0.5721 Y   1.2895 Z
    Strength   :     0.1352901579
    D(448) --> V(  7) amplitude =  0.2250
    D(450) --> V(  7) amplitude =  0.7112
    D(452) --> V(  1) amplitude =  0.2123
    D(452) --> V(  3) amplitude = -0.2420
    D(455) --> V(  7) amplitude =  0.3703

 Excited state  25: excitation energy (eV) =    2.8085
    Total energy for state  25:  -5399.755040493482
    Multiplicity: Singlet
    Trans. Mom.:  6.5867 X   2.1396 Y  -1.3331 Z
    Strength   :     3.4225067412
    D(454) --> V(  8) amplitude = -0.7194
    D(455) --> V( 11) amplitude =  0.4755

 ---------------------------------------------------

                    Orbital Energies (a.u.)
 --------------------------------------------------------------

 Alpha MOs
 -- Occupied --
-18.644 -13.963 -13.959 -13.952 -13.949 -13.911 -13.886  -9.958
 -9.926  -9.921  -9.911  -9.910  -9.908  -9.907  -9.906  -9.903
 -9.901  -9.900  -9.899  -9.899  -9.898  -9.898  -9.897  -9.897
 -9.896  -9.896  -9.896  -9.895  -9.893  -9.893  -9.893  -9.893
 -9.893  -9.893  -9.892  -9.892  -9.892  -9.892  -9.892  -9.892
 -9.892  -9.891  -9.891  -9.891  -9.891  -9.890  -9.890  -9.890
 -9.889  -9.889  -9.889  -9.888  -9.888  -9.888  -9.888  -9.888
 -9.888  -9.888  -9.888  -9.888  -9.888  -9.888  -9.888  -9.887
 -9.887  -9.887  -9.887  -9.886  -9.886  -9.886  -9.886  -9.886
 -9.885  -9.885  -9.885  -9.884  -9.884  -9.883  -9.880  -9.879
 -9.879  -9.873  -9.872  -9.871  -9.869  -9.869  -9.866  -9.865
 -9.865  -9.865  -9.865  -9.862  -9.862  -9.862  -9.860  -9.859
 -9.859  -9.859  -9.857  -9.857  -9.856  -9.856  -9.856  -9.856
 -9.856  -9.854  -9.854  -9.854  -9.854  -9.853  -9.852  -9.851
 -9.850  -9.849  -9.848  -9.847  -9.844  -9.843  -9.843  -9.843
 -9.843  -9.843  -9.842  -9.841  -9.841  -9.837  -9.837  -9.831
 -9.829  -9.828  -9.826  -9.826  -9.824  -9.821  -9.820  -9.819
 -9.817  -9.813  -9.803  -1.046  -1.028  -1.020  -1.013  -1.008
 -1.002  -1.002  -0.983  -0.975  -0.975  -0.974  -0.972  -0.972
 -0.962  -0.953  -0.942  -0.940  -0.934  -0.928  -0.888  -0.887
 -0.886  -0.883  -0.880  -0.874  -0.866  -0.857  -0.849  -0.848
 -0.847  -0.843  -0.842  -0.841  -0.837  -0.837  -0.835  -0.830
 -0.824  -0.820  -0.817  -0.814  -0.811  -0.810  -0.804  -0.804
 -0.799  -0.797  -0.796  -0.789  -0.788  -0.784  -0.781  -0.780
 -0.772  -0.769  -0.767  -0.765  -0.763  -0.761  -0.759  -0.758
 -0.755  -0.754  -0.753  -0.750  -0.747  -0.746  -0.744  -0.737
 -0.734  -0.730  -0.723  -0.716  -0.714  -0.707  -0.702  -0.701
 -0.697  -0.692  -0.688  -0.686  -0.684  -0.681  -0.681  -0.676
 -0.675  -0.675  -0.673  -0.669  -0.668  -0.667  -0.665  -0.660
 -0.657  -0.651  -0.649  -0.641  -0.640  -0.632  -0.631  -0.629
 -0.625  -0.625  -0.622  -0.621  -0.619  -0.618  -0.614  -0.613
 -0.611  -0.605  -0.601  -0.599  -0.595  -0.593  -0.588  -0.587
 -0.585  -0.583  -0.581  -0.580  -0.579  -0.577  -0.577  -0.573
 -0.572  -0.572  -0.566  -0.562  -0.559  -0.558  -0.557  -0.555
 -0.552  -0.550  -0.548  -0.546  -0.544  -0.543  -0.542  -0.539
 -0.538  -0.536  -0.535  -0.534  -0.532  -0.528  -0.527  -0.527
 -0.520  -0.517  -0.516  -0.516  -0.514  -0.514  -0.511  -0.508
 -0.506  -0.505  -0.504  -0.504  -0.504  -0.501  -0.498  -0.497
 -0.496  -0.494  -0.493  -0.493  -0.492  -0.491  -0.489  -0.487
 -0.487  -0.486  -0.484  -0.484  -0.482  -0.482  -0.481  -0.478
 -0.477  -0.476  -0.475  -0.475  -0.474  -0.472  -0.472  -0.471
 -0.469  -0.469  -0.467  -0.466  -0.464  -0.462  -0.461  -0.460
 -0.459  -0.459  -0.458  -0.457  -0.457  -0.456  -0.454  -0.451
 -0.448  -0.448  -0.447  -0.447  -0.445  -0.444  -0.443  -0.443
 -0.442  -0.440  -0.438  -0.435  -0.434  -0.434  -0.431  -0.431
 -0.428  -0.427  -0.426  -0.424  -0.424  -0.423  -0.422  -0.419
 -0.418  -0.417  -0.416  -0.416  -0.415  -0.414  -0.414  -0.412
 -0.411  -0.410  -0.410  -0.409  -0.407  -0.407  -0.405  -0.405
 -0.404  -0.402  -0.402  -0.401  -0.400  -0.400  -0.398  -0.398
 -0.395  -0.395  -0.391  -0.388  -0.382  -0.381  -0.379  -0.379
 -0.378  -0.377  -0.375  -0.369  -0.368  -0.367  -0.366  -0.363
 -0.363  -0.360  -0.357  -0.356  -0.352  -0.348  -0.344  -0.343
 -0.342  -0.341  -0.340  -0.338  -0.337  -0.336  -0.335  -0.334
 -0.329  -0.327  -0.325  -0.323  -0.319  -0.315  -0.315  -0.312
 -0.311  -0.310  -0.309  -0.308  -0.302  -0.301  -0.301  -0.295
 -0.291  -0.282  -0.282  -0.281  -0.280  -0.278  -0.276  -0.273
 -0.268  -0.267  -0.262  -0.251  -0.241  -0.217  -0.214

                    Cartesian Multipole Moments
 -----------------------------------------------------------------
    Charge (ESU x 10^10)
                 0.0000
    Dipole Moment (Debye)
         X       5.1719      Y       0.3243      Z       0.9632
       Tot       5.2708
    Quadrupole Moments (Debye-Ang)
        XX    -205.3570     XY     318.3617     YY    -810.4716
        XZ     268.2363     YZ      69.7140     ZZ    -666.8667

 Total job time:  12568.07s(wall), 168813.86s(cpu)
        *  Thank you very much for using Q-Chem.  Have a nice day.  *
