 Gaussian 16, Revision B.01,
 Gaussian 16:  ES64L-G16RevB.01 20-Dec-2017

 ----------------------------------------------------------
 # wb97xd/6-31+g iop(6/33=2) iop(6/42=6) pop=mk iop(6/50=1)
 ----------------------------------------------------------

 ---
 C70
 ---
 Symbolic Z-matrix:
 Charge =  0 Multiplicity = 1

                         Standard orientation:
 ---------------------------------------------------------------------
 Center     Atomic      Atomic             Coordinates (Angstroms)
 Number     Number       Type             X           Y           Z
 ---------------------------------------------------------------------
      1          6           0       -3.883824   -0.411359   -1.202060
      2          6           0       -4.002143    0.877857   -0.597705
      3          6           0       -3.922193    0.653412    0.795329
      4          6           0       -3.786236   -0.734862    1.040101
      5          6           0       -3.746826   -1.368814   -0.231930
      6          6           0       -3.310591    1.982522   -1.072293
      7          6           0       -2.639993    2.817513   -0.184410
      8          6           0       -2.573260    2.591219    1.173495
      9          6           0       -3.194886    1.465912    1.632590
     10          6           0       -2.383455    0.964920    2.691336
     11          6           0       -2.328045   -0.431920    2.973777
     12          6           0       -2.995034   -1.243963    2.084622
     13          6           0       -2.198544   -2.322733    1.909825
     14          6           0       -2.177500   -2.960201    0.641596
     15          6           0       -2.916038   -2.442703   -0.409074
     16          6           0       -2.185223   -2.557103   -1.516080
     17          6           0       -2.298015   -1.659386   -2.480370
     18          6           0       -3.154643   -0.560310   -2.352681
     19          6           0       -2.462338    0.572819   -2.924718
     20          6           0       -2.543677    1.820295   -2.250803
     21          6           0       -1.072294   -1.263469   -3.101585
     22          6           0       -1.210578    0.136387   -3.335793
     23          6           0       -1.412580    3.196203   -0.856600
     24          6           0       -1.377079    2.530779   -2.115170
     25          6           0       -0.984527   -3.222891   -1.182015
     26          6           0       -0.975823   -3.407191    0.161787
     27          6           0       -1.024222   -2.199375    2.638075
     28          6           0       -1.109195   -1.011287    3.230869
     29          6           0       -1.323683    1.851821    2.889227
     30          6           0       -1.407660    2.788241    1.915291
     31          6           0       -0.206835    3.242830    1.228126
     32          6           0       -0.196326    3.461490   -0.146829
     33          6           0       -0.146590    2.086583   -2.628982
     34          6           0       -0.066803    0.891173   -3.301025
     35          6           0        0.172215   -1.890082   -2.804771
     36          6           0        0.170289   -2.903838   -1.843472
     37          6           0        0.161601   -2.730098    2.193515
     38          6           0        0.189485   -3.302932    0.940395
     39          6           0       -0.092663    1.282523    3.267736
     40          6           0       -0.007793   -0.129814    3.422669
     41          6           0        1.008124    2.879175    1.827860
     42          6           0        1.059572    1.929152    2.853079
     43          6           0        1.038978    2.661619   -2.118860
     44          6           0        0.982496    3.334707   -0.894700
     45          6           0        1.180089    0.204969   -3.356271
     46          6           0        1.268704   -1.126062   -3.154069
     47          6           0        1.171469   -0.778357    3.155316
     48          6           0        1.328695   -2.050836    2.634048
     49          6           0        1.408663   -3.291606    0.219256
     50          6           0        1.393633   -3.095527   -1.188438
     51          6           0        2.540679   -2.406385   -1.527104
     52          6           0        2.497361   -1.405940   -2.515201
     53          6           0        2.277545    0.775079   -2.802304
     54          6           0        2.251411    2.025091   -2.263648
     55          6           0        2.246793    3.033204   -0.295764
     56          6           0        2.224887    2.776042    1.110518
     57          6           0        2.266199    1.250117    2.711366
     58          6           0        2.344926   -0.146545    2.870115
     59          6           0        2.568781   -2.739807    0.689513
     60          6           0        2.478179   -2.075405    1.904428
     61          6           0        2.998710    1.789687    1.667478
     62          6           0        3.178842   -0.905593    2.104573
     63          6           0        3.264126   -2.228547   -0.370256
     64          6           0        3.168271   -0.206225   -2.385947
     65          6           0        3.052973    2.263866   -1.136581
     66          6           0        3.914653    0.027105   -1.157262
     67          6           0        3.860937    1.295889   -0.581824
     68          6           0        3.824240    1.056362    0.836714
     69          6           0        3.923361   -0.988224   -0.182346
     70          6           0        3.900229   -0.317166    1.054317
 ---------------------------------------------------------------------

 SCF Done:  E(RwB97XD) =  -2665.52745633     A.U. after   19 cycles

 The electronic state is 1-A.
 Alpha  occ. eigenvalues --  -10.36134 -10.35960 -10.35861 -10.35809 -10.35755
 Alpha  occ. eigenvalues --  -10.35539 -10.35466 -10.35404 -10.35394 -10.35352
 Alpha  occ. eigenvalues --  -10.35344 -10.35324 -10.35288 -10.35252 -10.35237
 Alpha  occ. eigenvalues --  -10.35230 -10.35211 -10.35197 -10.35175 -10.35158
 Alpha  occ. eigenvalues --  -10.35152 -10.35133 -10.35093 -10.35080 -10.35044
 Alpha  occ. eigenvalues --  -10.34961 -10.34933 -10.34930 -10.34854 -10.34812
 Alpha  occ. eigenvalues --  -10.34796 -10.34755 -10.34610 -10.34508 -10.34485
 Alpha  occ. eigenvalues --  -10.34463 -10.34409 -10.34402 -10.34392 -10.34346
 Alpha  occ. eigenvalues --  -10.34344 -10.34341 -10.34296 -10.34294 -10.34276
 Alpha  occ. eigenvalues --  -10.34247 -10.34105 -10.34099 -10.34062 -10.34043
 Alpha  occ. eigenvalues --  -10.34019 -10.33958 -10.33935 -10.33922 -10.33904
 Alpha  occ. eigenvalues --  -10.33887 -10.33866 -10.33838 -10.33828 -10.33800
 Alpha  occ. eigenvalues --  -10.33743 -10.33681 -10.33672 -10.33618 -10.33541
 Alpha  occ. eigenvalues --  -10.33364 -10.33364 -10.33188 -10.33187 -10.32950
 Alpha  occ. eigenvalues --   -1.12765  -1.11450  -1.10836  -1.10490  -1.08554
 Alpha  occ. eigenvalues --   -1.08327  -1.07315  -1.06959  -1.06408  -1.04660
 Alpha  occ. eigenvalues --   -1.04331  -1.03563  -1.00854  -1.00716  -1.00230
 Alpha  occ. eigenvalues --   -0.99948  -0.98008  -0.95392  -0.94978  -0.94891
 Alpha  occ. eigenvalues --   -0.94640  -0.94265  -0.94144  -0.92937  -0.92758
 Alpha  occ. eigenvalues --   -0.88809  -0.88669  -0.88497  -0.87626  -0.87516
 Alpha  occ. eigenvalues --   -0.87130  -0.86785  -0.86502  -0.85995  -0.85125
 Alpha  occ. eigenvalues --   -0.83410  -0.80463  -0.80458  -0.79640  -0.79227
 Alpha  occ. eigenvalues --   -0.78854  -0.78521  -0.78102  -0.77952  -0.76063
 Alpha  occ. eigenvalues --   -0.75712  -0.75449  -0.74637  -0.74321  -0.70974
 Alpha  occ. eigenvalues --   -0.70845  -0.70260  -0.70171  -0.69151  -0.68906
 Alpha  occ. eigenvalues --   -0.68855  -0.68706  -0.68240  -0.66183  -0.65974
 Alpha  occ. eigenvalues --   -0.65457  -0.64997  -0.64662  -0.64103  -0.61755
 Alpha  occ. eigenvalues --   -0.61392  -0.61214  -0.60940  -0.60633  -0.60064
 Alpha  occ. eigenvalues --   -0.59928  -0.59440  -0.59264  -0.58996  -0.58910
 Alpha  occ. eigenvalues --   -0.58628  -0.58366  -0.58068  -0.57729  -0.57537
 Alpha  occ. eigenvalues --   -0.56872  -0.56759  -0.56335  -0.55387  -0.55288
 Alpha  occ. eigenvalues --   -0.54976  -0.54715  -0.54658  -0.54193  -0.53784
 Alpha  occ. eigenvalues --   -0.53655  -0.53525  -0.53320  -0.53122  -0.52893
 Alpha  occ. eigenvalues --   -0.52682  -0.52441  -0.51815  -0.51543  -0.51471
 Alpha  occ. eigenvalues --   -0.50091  -0.49751  -0.49672  -0.49490  -0.49258
 Alpha  occ. eigenvalues --   -0.48901  -0.48578  -0.48014  -0.47952  -0.46879
 Alpha  occ. eigenvalues --   -0.46176  -0.46052  -0.45866  -0.45629  -0.45398
 Alpha  occ. eigenvalues --   -0.45138  -0.45066  -0.44733  -0.44690  -0.44354
 Alpha  occ. eigenvalues --   -0.43530  -0.42340  -0.40738  -0.40168  -0.39801
 Alpha  occ. eigenvalues --   -0.39785  -0.38960  -0.38619  -0.36870  -0.36574
 Alpha  occ. eigenvalues --   -0.33140  -0.33049  -0.32369  -0.32164  -0.31708
 Alpha  occ. eigenvalues --   -0.31575  -0.30291  -0.29676  -0.29240  -0.28937
 Alpha virt. eigenvalues --   -0.09231  -0.08910  -0.08820  -0.06379  -0.04678
 Alpha virt. eigenvalues --   -0.04186   0.01180   0.02022   0.02108   0.02311
 Alpha virt. eigenvalues --    0.03410   0.03764   0.04039   0.04433   0.04557

 Mulliken charges:
               1
     1  C   -0.002972
     2  C    0.360840
     3  C    0.476181
     4  C    0.180314
     5  C    0.050569
     6  C    0.029338
     7  C    0.195133
     8  C   -0.118894
     9  C    0.128348
    10  C   -0.132725
    11  C    0.187366
    12  C   -0.138824
    13  C   -0.158205
    14  C   -0.027804
    15  C   -0.313214
    16  C   -0.127537
    17  C    0.217511
    18  C   -0.414201
    19  C    0.249661
    20  C    0.186016
    21  C   -0.020593
    22  C   -0.074284
    23  C   -0.426044
    24  C    0.138040
    25  C    0.080355
    26  C   -0.159081
    27  C   -0.072045
    28  C   -0.176471
    29  C   -0.169447
    30  C   -0.145580
    31  C   -0.247823
    32  C   -0.123498
    33  C   -0.346651
    34  C    0.275718
    35  C    0.125964
    36  C    0.244078
    37  C    0.355063
    38  C    0.164988
    39  C   -0.085042
    40  C    0.385119
    41  C   -0.163582
    42  C   -0.227056
    43  C   -0.280035
    44  C    0.010787
    45  C   -0.275507
    46  C   -0.129299
    47  C   -0.207798
    48  C    0.085190
    49  C    0.249913
    50  C   -0.355305
    51  C    0.065970
    52  C   -0.046286
    53  C   -0.369945
    54  C    0.297540
    55  C    0.182706
    56  C    0.057222
    57  C    0.193484
    58  C   -0.247434
    59  C    0.230826
    60  C   -0.063205
    61  C   -0.148870
    62  C   -0.076087
    63  C    0.022303
    64  C    0.269944
    65  C   -0.103784
    66  C   -0.036096
    67  C    0.146443
    68  C    0.212670
    69  C    0.102708
    70  C    0.052917
 Sum of Mulliken charges =  -0.00000

 Dipole moment (field-independent basis, Debye):
    X=             -0.1672    Y=              0.1047    Z=              0.1111  Tot=              0.2264
 Quadrupole moment (field-independent basis, Debye-Ang):
   XX=           -390.3039   YY=           -390.5345   ZZ=           -389.5126
   XY=             -0.4709   XZ=              1.1996   YZ=             -0.0709

 ESP charges:
               1
     1  C   -0.196274
     2  C   -0.022576
     3  C    0.213853
     4  C   -0.276530
     5  C    0.203037
     6  C    0.030450
     7  C   -0.183463
     8  C    0.117883
     9  C   -0.361133
    10  C    0.959802
    11  C   -1.005524
    12  C    0.412031
    13  C    0.141954
    14  C   -0.176842
    15  C   -0.263194
    16  C    0.643957
    17  C   -0.539227
    18  C    0.429793
    19  C   -0.620219
    20  C    0.442392
    21  C   -0.177433
    22  C    0.761984
    23  C    0.362010
    24  C   -0.822438
    25  C   -0.430640
    26  C    0.258153
    27  C   -0.670733
    28  C    1.094707
    29  C   -0.830145
    30  C    0.107724
    31  C    0.085913
    32  C   -0.288970
    33  C    1.125627
    34  C   -0.813509
    35  C    0.494794
    36  C   -0.015984
    37  C    0.646297
    38  C   -0.194109
    39  C    1.011475
    40  C   -1.211677
    41  C    0.260197
    42  C   -0.524024
    43  C   -0.359927
    44  C    0.228576
    45  C   -0.007376
    46  C   -0.487743
    47  C    1.107064
    48  C   -1.080204
    49  C    0.246900
    50  C    0.008089
    51  C   -0.313622
    52  C    0.503250
    53  C    0.850389
    54  C   -0.557184
    55  C   -0.144779
    56  C   -0.162251
    57  C    0.069015
    58  C   -0.253950
    59  C   -0.554752
    60  C    0.849896
    61  C    0.185152
    62  C   -0.395452
    63  C    0.371996
    64  C   -0.793989
    65  C    0.512238
    66  C    0.594671
    67  C   -0.484165
    68  C    0.004861
    69  C   -0.376984
    70  C    0.260893
 Sum of ESP charges =   0.00000

 Normal termination of Gaussian 16 at Mon May 27 21:29:03 2024.
